Siesta Version  : master-post-4.1-266
Architecture    : unknown
Compiler version: GNU Fortran (Ubuntu 9.3.0-17ubuntu1~20.04) 9.3.0
Compiler flags  : gfortran -O2 -fPIC -ftree-vectorize
PP flags        : -DFC_HAVE_ABORT -DSIESTA__DIAG_2STAGE -DSIESTA__MRRR
Libraries       : libsiestaLAPACK.a libsiestaBLAS.a
Directory       : /home/colinw/siesta/mixture_simulations/Mixture1
SERIAL version

* Running in serial mode
>> Start of run:  13-DEC-2020  21:32:11

                           ***********************       
                           *  WELCOME TO SIESTA  *       
                           ***********************       

reinit: Reading from standard input
reinit: Dumped input in INPUT_TMP.50400
************************** Dump of input data file ****************************
NumberOfAtoms 116
SpinPolarized yes
#FixSpin .true.
#TotalSpin
NumberOfSpecies 4
MD.TypeOfRun  nose
MD.FinalTimeStep 10
MD.LengthTimeStep 1.0  fs
MD.InitialTemperature 300 K
MD.TargetTemperature  300  K
%block ChemicalSpeciesLabel
1  6  C
2  7  N
3  1  H
4  8  O
%endblock ChemicalSpeciesLabel
PAO.BasisSize dzp
 PAO.EnergyShift 0.02 Ry
MeshCutoff          100 Ry
MaxSCFIterations    100
DM.NumberPulay       3
DM.Tolerance         1e-3
WriteDenchar	.true.
%block ProjectedDensityOfStates
-10.0 10.0 0.200 500 eV
%endblock ProjectedDensityOfStates
NetCharge 0.00
%block BandLines
1  1.000  1.000 1.000  L
20 0.00   0.00   0.00  \Gamma
25 2.00   0.000  0.00  X
30 2.00   2.00   2.00  \Gamma
%endblock BandLines
LongOutput .true.
WriteCoorXmol .true.
LatticeConstant 1 Ang
%block LatticeVectors
  31.226333 0.0 0.0
  0.0 37.170986 0.0
  0.0 0.0 23.467498
%endblock LatticeVectors
#UseSaveData .true.
%block kgrid_Monkhorst_Pack
1 0 0 0.0
 0 1 0 0.0
 0 0 1 0.0
%endblock kgrid_Monkhorst_Pack
WriteMDXmol .true.
AtomicCoordinatesFormat Ang
%block AtomicCoordinatesAndAtomicSpecies
24.945772  1.034278 2.248846  1
26.163106  1.773723 1.766518  1
27.130056  1.080687 1.033691  1
28.240429  1.769002 0.585870  1
28.451560  3.081442 0.807362  2
27.525604  3.759629 1.505980  1
27.727636  5.117117 1.717625  1
26.810774  5.899594 2.422943  1
25.667832  5.313461 2.946384  1
25.442844  3.950995 2.753091  1
26.356448  3.154457 2.022610  1
24.949622  -0.008779 1.914354  3
24.036973  1.498541 1.852426  3
24.910291  1.030675 3.342959  3
27.023968  0.024913 0.808108  3
29.014848  1.267955 0.012151  3
28.624281  5.581035 1.313307  3
26.995374  6.961959 2.558128  3
24.949360  5.912435 3.499756  3
24.540734  3.515816 3.174848  3
10.556615  22.433155 7.329675  1
9.614651  22.957691 6.405731  1
9.282714  22.179177 5.263876  1
9.877569  20.941370 5.013155  1
10.880339  20.511197 5.883223  1
11.243410  21.213008 7.069823  1
10.830682  23.137627 8.533340  1
10.233598  24.407879 8.703367  1
9.386081  24.926797 7.806636  2
9.048859  24.222462 6.694218  1
12.243086  20.739081 7.987517  1
12.448084  21.413708 9.223131  1
11.701156  22.603966 9.508943  1
11.825055  23.321467 10.728999  1
11.282684  24.595370 10.904743  1
10.585188  25.164829 9.829612  1
11.603308  25.380836 12.176469  1
11.467095  26.912307 12.003593  1
11.502654  27.379794 10.541137  1
10.341680  26.660528 9.824077  1
13.080734  19.616958 7.712523  1
14.101612  19.167296 8.564652  1
14.254638  19.819248 9.776419  1
13.441231  20.903281 10.101598  1
8.005556  24.914871 5.826279  1
8.462949  26.267086 5.228502  1
9.672375  26.091004 4.309903  1
7.338664  26.943242 4.429890  1
9.422058  20.070843 3.849293  1
8.324167  19.051080 4.237343  1
7.840077  18.141244 3.075922  1
8.951570  17.257922 2.505027  1
6.664332  17.248260 3.506889  1
12.888750  27.158759 9.880574  1
12.969440  27.641058 8.425429  1
14.337779  27.377972 7.787621  1
15.476905  28.087625 8.501632  1
10.740233  24.884188 13.361366  1
11.127450  25.496862 14.704647  1
15.239412  19.417211 10.630697  4
15.011784  18.041172 8.129979  1
14.476048  16.654903 8.491895  1
15.413311  15.544752 8.031244  1
8.547587  22.532168 4.548949  3
11.374111  19.575839 5.633186  3
12.417965  22.929141 11.546134  3
12.659241  25.184613 12.411647  3
12.238743  27.421017 12.595877  3
10.508139  27.243396 12.427128  3
11.302261  28.459239 10.531605  3
10.273016  27.049360 8.803506  3
9.386705  26.877349 10.315127  3
12.983585  19.087017 6.764953  3
13.623974  21.387030 11.056005  3
7.125114  25.085308 6.461805  3
7.650618  24.271422 5.018727  3
8.741254  26.945972 6.044801  3
9.431869  25.430984 3.469329  3
10.523751  25.665977 4.848325  3
9.989644  27.056227 3.900925  3
7.027307  26.330923 3.576014  3
7.677930  27.908500 4.033835  3
6.459071  27.135064 5.052331  3
10.299290  19.556961 3.438738  3
9.046576  20.717406 3.047248  3
7.457631  19.607917 4.618270  3
8.675378  18.425782 5.068540  3
7.473698  18.782769 2.265156  3
9.428781  16.655480 3.284906  3
9.718866  17.861177 2.012467  3
8.552832  16.570026 1.749434  3
6.919086  16.619636 4.367087  3
6.361623  16.580409 2.689968  3
5.788515  17.850354 3.769898  3
13.180839  26.103285 9.901007  3
13.636974  27.684314 10.484071  3
12.738530  28.711341 8.375670  3
12.221935  27.124192 7.812951  3
14.310667  27.712487 6.743338  3
14.536333  26.299571 7.767244  3
15.282776  29.162207 8.574350  3
16.414950  27.943284 7.957686  3
15.622296  27.692771 9.511394  3
10.809370  23.793161 13.453333  3
9.683559  25.107560 13.164356  3
12.126879  25.171415 15.009502  3
10.420197  25.181663 15.479649  3
11.115317  26.590329 14.678533  3
15.286603  20.040894 11.374681  3
16.011239  18.185254 8.558925  3
15.154554  18.108350 7.043190  3
13.494265  16.501798 8.028755  3
14.334473  16.574860 9.575974  3
15.593159  15.597289 6.952412  3
14.975545  14.565342 8.251238  3
16.379415  15.603148 8.543252  3
 %endblock AtomicCoordinatesAndAtomicSpecies
************************** End of input data file *****************************

reinit: -----------------------------------------------------------------------
reinit: System Name: 
reinit: -----------------------------------------------------------------------
reinit: System Label: siesta
reinit: -----------------------------------------------------------------------

initatom: Reading input for the pseudopotentials and atomic orbitals ----------
Species number:   1 Atomic number:    6 Label: C
Species number:   2 Atomic number:    7 Label: N
Species number:   3 Atomic number:    1 Label: H
Species number:   4 Atomic number:    8 Label: O

Ground state valence configuration:   2s02  2p02
Reading pseudopotential information in formatted form from C.psf

Valence configuration for pseudopotential generation:
2s( 2.00) rc: 1.54
2p( 2.00) rc: 1.54
3d( 0.00) rc: 1.54
4f( 0.00) rc: 1.54
Ground state valence configuration:   2s02  2p03
Reading pseudopotential information in formatted form from N.psf

Valence configuration for pseudopotential generation:
2s( 2.00) rc: 1.48
2p( 3.00) rc: 1.48
3d( 0.00) rc: 1.48
4f( 0.00) rc: 1.48
Ground state valence configuration:   1s01
Reading pseudopotential information in formatted form from H.psf

Valence configuration for pseudopotential generation:
1s( 1.00) rc: 1.31
2p( 0.00) rc: 1.31
3d( 0.00) rc: 0.37
4f( 0.00) rc: 1.31
Ground state valence configuration:   2s02  2p04
Reading pseudopotential information in formatted form from O.psf

Valence configuration for pseudopotential generation:
2s( 2.00) rc: 1.47
2p( 4.00) rc: 1.47
3d( 0.00) rc: 1.47
4f( 0.00) rc: 1.47
For C, standard SIESTA heuristics set lmxkb to 3
 (one more than the basis l, including polarization orbitals).
Use PS.lmax or PS.KBprojectors blocks to override.
For N, standard SIESTA heuristics set lmxkb to 3
 (one more than the basis l, including polarization orbitals).
Use PS.lmax or PS.KBprojectors blocks to override.
For H, standard SIESTA heuristics set lmxkb to 2
 (one more than the basis l, including polarization orbitals).
Use PS.lmax or PS.KBprojectors blocks to override.
For O, standard SIESTA heuristics set lmxkb to 3
 (one more than the basis l, including polarization orbitals).
Use PS.lmax or PS.KBprojectors blocks to override.

<basis_specs>
===============================================================================
C                    Z=   6    Mass=  12.010        Charge= 0.17977+309
Lmxo=1 Lmxkb= 3    BasisType=split      Semic=F
L=0  Nsemic=0  Cnfigmx=2
          i=1  nzeta=2  polorb=0  (2s)
            splnorm:   0.15000    
               vcte:    0.0000    
               rinn:    0.0000    
               qcoe:    0.0000    
               qyuk:    0.0000    
               qwid:   0.10000E-01
                rcs:    0.0000      0.0000    
            lambdas:    1.0000      1.0000    
L=1  Nsemic=0  Cnfigmx=2
          i=1  nzeta=2  polorb=1  (2p)
            splnorm:   0.15000    
               vcte:    0.0000    
               rinn:    0.0000    
               qcoe:    0.0000    
               qyuk:    0.0000    
               qwid:   0.10000E-01
                rcs:    0.0000      0.0000    
            lambdas:    1.0000      1.0000    
-------------------------------------------------------------------------------
L=0  Nkbl=1  erefs: 0.17977+309
L=1  Nkbl=1  erefs: 0.17977+309
L=2  Nkbl=1  erefs: 0.17977+309
L=3  Nkbl=1  erefs: 0.17977+309
===============================================================================
</basis_specs>

atom: Called for C                     (Z =   6)

read_vps: Pseudopotential generation method:
read_vps: ATM3      Troullier-Martins                       
Valence charge for ps generation:    4.00000

read_vps: Pseudopotential includes a core correction:
read_vps: Pseudo-core for xc-correction

xc_check: Exchange-correlation functional:
xc_check: Ceperley-Alder
xc_check: WARNING: Pseudopotential generated with GGA PBE functional
V l=0 = -2*Zval/r beyond r=  1.5227
V l=1 = -2*Zval/r beyond r=  1.5227
V l=2 = -2*Zval/r beyond r=  1.5227
V l=3 = -2*Zval/r beyond r=  1.5038
All V_l potentials equal beyond r=  1.5227
This should be close to max(r_c) in ps generation
All pots = -2*Zval/r beyond r=  1.5227

VLOCAL1: 99.0% of the norm of Vloc inside     18.722 Ry
VLOCAL1: 99.9% of the norm of Vloc inside     42.668 Ry
atom: Maximum radius for 4*pi*r*r*local-pseudopot. charge    1.83678
atom: Maximum radius for r*vlocal+2*Zval:    1.58088

KBgen: Kleinman-Bylander projectors: 
GHOST: No ghost state for L =  0
   l= 0   rc=  1.704034   el= -0.998584   Ekb=  5.327875   kbcos=  0.314897
GHOST: No ghost state for L =  1
   l= 1   rc=  1.704034   el= -0.383998   Ekb= -3.785479   kbcos= -0.363289
GHOST: No ghost state for L =  2
   l= 2   rc=  1.791422   el=  0.002326   Ekb= -0.971263   kbcos= -0.009325
GHOST: No ghost state for L =  3
   l= 3   rc=  1.859892   el=  0.003420   Ekb= -0.399672   kbcos= -0.001232

KBgen: Total number of  Kleinman-Bylander projectors:   16
atom: -------------------------------------------------------------------------

atom: SANKEY-TYPE ORBITALS:
atom: Selected multiple-zeta basis: split     

SPLIT: Orbitals with angular momentum L= 0

SPLIT: Basis orbitals for state 2s

SPLIT: PAO cut-off radius determined from an
SPLIT: energy shift=  0.020000 Ry

   izeta = 1
                 lambda =    1.000000
                     rc =    4.191849
                 energy =   -0.980459
                kinetic =    0.881507
    potential(screened) =   -1.861966
       potential(ionic) =   -5.449625

   izeta = 2
                 rmatch =    3.431921
              splitnorm =    0.150000
                 energy =   -0.849396
                kinetic =    1.300036
    potential(screened) =   -2.149433
       potential(ionic) =   -5.962781

SPLIT: Orbitals with angular momentum L= 1

SPLIT: Basis orbitals for state 2p

SPLIT: PAO cut-off radius determined from an
SPLIT: energy shift=  0.020000 Ry

   izeta = 1
                 lambda =    1.000000
                     rc =    4.993604
                 energy =   -0.366127
                kinetic =    2.463190
    potential(screened) =   -2.829316
       potential(ionic) =   -6.291180

   izeta = 2
                 rmatch =    3.518811
              splitnorm =    0.150000
                 energy =   -0.204163
                kinetic =    3.723883
    potential(screened) =   -3.928045
       potential(ionic) =   -7.766545

POLgen: Perturbative polarization orbital with L=  2

POLgen: Polarization orbital for state 2p

   izeta = 1
                     rc =    4.993604
                 energy =    1.232619
                kinetic =    2.527283
    potential(screened) =   -1.294664
       potential(ionic) =   -4.203101
atom: Total number of Sankey-type orbitals: 13

atm_pop: Valence configuration (for local Pseudopot. screening):
 2s( 2.00)                                                            
 2p( 2.00)                                                            
Vna: chval, zval:    4.00000   4.00000

Vna:  Cut-off radius for the neutral-atom potential:   4.993604
comcore: Pseudo-core radius Rcore=  1.791422

atom: _________________________________________________________________________

<basis_specs>
===============================================================================
N                    Z=   7    Mass=  14.010        Charge= 0.17977+309
Lmxo=1 Lmxkb= 3    BasisType=split      Semic=F
L=0  Nsemic=0  Cnfigmx=2
          i=1  nzeta=2  polorb=0  (2s)
            splnorm:   0.15000    
               vcte:    0.0000    
               rinn:    0.0000    
               qcoe:    0.0000    
               qyuk:    0.0000    
               qwid:   0.10000E-01
                rcs:    0.0000      0.0000    
            lambdas:    1.0000      1.0000    
L=1  Nsemic=0  Cnfigmx=2
          i=1  nzeta=2  polorb=1  (2p)
            splnorm:   0.15000    
               vcte:    0.0000    
               rinn:    0.0000    
               qcoe:    0.0000    
               qyuk:    0.0000    
               qwid:   0.10000E-01
                rcs:    0.0000      0.0000    
            lambdas:    1.0000      1.0000    
-------------------------------------------------------------------------------
L=0  Nkbl=1  erefs: 0.17977+309
L=1  Nkbl=1  erefs: 0.17977+309
L=2  Nkbl=1  erefs: 0.17977+309
L=3  Nkbl=1  erefs: 0.17977+309
===============================================================================
</basis_specs>

atom: Called for N                     (Z =   7)

read_vps: Pseudopotential generation method:
read_vps: ATM3      Troullier-Martins                       
Valence charge for ps generation:    5.00000

read_vps: Pseudopotential includes a core correction:
read_vps: Pseudo-core for xc-correction

xc_check: Exchange-correlation functional:
xc_check: Ceperley-Alder
xc_check: WARNING: Pseudopotential generated with GGA PBE functional
V l=0 = -2*Zval/r beyond r=  1.4606
V l=1 = -2*Zval/r beyond r=  1.4606
V l=2 = -2*Zval/r beyond r=  1.4606
V l=3 = -2*Zval/r beyond r=  1.4606
All V_l potentials equal beyond r=  1.4606
This should be close to max(r_c) in ps generation
All pots = -2*Zval/r beyond r=  1.4606

VLOCAL1: 99.0% of the norm of Vloc inside     20.347 Ry
VLOCAL1: 99.9% of the norm of Vloc inside     46.372 Ry
atom: Maximum radius for 4*pi*r*r*local-pseudopot. charge    1.76189
atom: Maximum radius for r*vlocal+2*Zval:    1.53550

KBgen: Kleinman-Bylander projectors: 
GHOST: No ghost state for L =  0
   l= 0   rc=  1.634559   el= -1.348537   Ekb=  5.297520   kbcos=  0.333054
GHOST: No ghost state for L =  1
   l= 1   rc=  1.614250   el= -0.512415   Ekb= -5.262296   kbcos= -0.428933
GHOST: No ghost state for L =  2
   l= 2   rc=  1.718383   el=  0.002346   Ekb= -1.271998   kbcos= -0.007619
GHOST: No ghost state for L =  3
   l= 3   rc=  1.761893   el=  0.003449   Ekb= -0.494630   kbcos= -0.001017

KBgen: Total number of  Kleinman-Bylander projectors:   16
atom: -------------------------------------------------------------------------

atom: SANKEY-TYPE ORBITALS:
atom: Selected multiple-zeta basis: split     

SPLIT: Orbitals with angular momentum L= 0

SPLIT: Basis orbitals for state 2s

SPLIT: PAO cut-off radius determined from an
SPLIT: energy shift=  0.020000 Ry

   izeta = 1
                 lambda =    1.000000
                     rc =    3.683980
                 energy =   -1.330014
                kinetic =    1.203086
    potential(screened) =   -2.533100
       potential(ionic) =   -8.093205

   izeta = 2
                 rmatch =    2.905100
              splitnorm =    0.150000
                 energy =   -1.134717
                kinetic =    1.810562
    potential(screened) =   -2.945280
       potential(ionic) =   -8.899916

SPLIT: Orbitals with angular momentum L= 1

SPLIT: Basis orbitals for state 2p

SPLIT: PAO cut-off radius determined from an
SPLIT: energy shift=  0.020000 Ry

   izeta = 1
                 lambda =    1.000000
                     rc =    4.388595
                 energy =   -0.493943
                kinetic =    3.501321
    potential(screened) =   -3.995264
       potential(ionic) =   -9.374806

   izeta = 2
                 rmatch =    2.978652
              splitnorm =    0.150000
                 energy =   -0.289183
                kinetic =    5.180785
    potential(screened) =   -5.469968
       potential(ionic) =  -11.438899

POLgen: Perturbative polarization orbital with L=  2

POLgen: Polarization orbital for state 2p

   izeta = 1
                     rc =    4.388595
                 energy =    1.759924
                kinetic =    3.542120
    potential(screened) =   -1.782196
       potential(ionic) =   -6.226799
atom: Total number of Sankey-type orbitals: 13

atm_pop: Valence configuration (for local Pseudopot. screening):
 2s( 2.00)                                                            
 2p( 3.00)                                                            
Vna: chval, zval:    5.00000   5.00000

Vna:  Cut-off radius for the neutral-atom potential:   4.388595
comcore: Pseudo-core radius Rcore=  1.554824

atom: _________________________________________________________________________

<basis_specs>
===============================================================================
H                    Z=   1    Mass=  1.0100        Charge= 0.17977+309
Lmxo=0 Lmxkb= 2    BasisType=split      Semic=F
L=0  Nsemic=0  Cnfigmx=1
          i=1  nzeta=2  polorb=1  (1s)
            splnorm:   0.15000    
               vcte:    0.0000    
               rinn:    0.0000    
               qcoe:    0.0000    
               qyuk:    0.0000    
               qwid:   0.10000E-01
                rcs:    0.0000      0.0000    
            lambdas:    1.0000      1.0000    
-------------------------------------------------------------------------------
L=0  Nkbl=1  erefs: 0.17977+309
L=1  Nkbl=1  erefs: 0.17977+309
L=2  Nkbl=1  erefs: 0.17977+309
===============================================================================
</basis_specs>

atom: Called for H                     (Z =   1)

read_vps: Pseudopotential generation method:
read_vps: ATM3      Troullier-Martins                       
Valence charge for ps generation:    1.00000

xc_check: Exchange-correlation functional:
xc_check: Ceperley-Alder
xc_check: WARNING: Pseudopotential generated with GGA PBE functional
V l=0 = -2*Zval/r beyond r=  1.2977
V l=1 = -2*Zval/r beyond r=  1.2815
V l=2 = -2*Zval/r beyond r=  1.2656
All V_l potentials equal beyond r=  1.2977
This should be close to max(r_c) in ps generation
All pots = -2*Zval/r beyond r=  1.2977

VLOCAL1: 99.0% of the norm of Vloc inside     25.776 Ry
VLOCAL1: 99.9% of the norm of Vloc inside     58.745 Ry
atom: Maximum radius for 4*pi*r*r*local-pseudopot. charge    1.52711
atom: Maximum radius for r*vlocal+2*Zval:    1.28155

KBgen: Kleinman-Bylander projectors: 
GHOST: No ghost state for L =  0
   l= 0   rc=  1.434438   el= -0.456815   Ekb= -1.960338   kbcos= -0.349997
GHOST: No ghost state for L =  1
   l= 1   rc=  1.508111   el=  0.001431   Ekb= -0.423993   kbcos= -0.025386
GHOST: No ghost state for L =  2
   l= 2   rc=  1.546352   el=  0.002365   Ekb= -0.376562   kbcos= -0.002012

KBgen: Total number of  Kleinman-Bylander projectors:    9
atom: -------------------------------------------------------------------------

atom: SANKEY-TYPE ORBITALS:
atom: Selected multiple-zeta basis: split     

SPLIT: Orbitals with angular momentum L= 0

SPLIT: Basis orbitals for state 1s

SPLIT: PAO cut-off radius determined from an
SPLIT: energy shift=  0.020000 Ry

   izeta = 1
                 lambda =    1.000000
                     rc =    4.828263
                 energy =   -0.438372
                kinetic =    0.921576
    potential(screened) =   -1.359947
       potential(ionic) =   -1.906664

   izeta = 2
                 rmatch =    3.903467
              splitnorm =    0.150000
                 energy =   -0.330751
                kinetic =    1.475177
    potential(screened) =   -1.805928
       potential(ionic) =   -2.389550

POLgen: Perturbative polarization orbital with L=  1

POLgen: Polarization orbital for state 1s

   izeta = 1
                     rc =    4.828263
                 energy =    0.711580
                kinetic =    1.391494
    potential(screened) =   -0.679914
       potential(ionic) =   -1.168115
atom: Total number of Sankey-type orbitals:  5

atm_pop: Valence configuration (for local Pseudopot. screening):
 1s( 1.00)                                                            
Vna: chval, zval:    1.00000   1.00000

Vna:  Cut-off radius for the neutral-atom potential:   4.828263

atom: _________________________________________________________________________

<basis_specs>
===============================================================================
O                    Z=   8    Mass=  16.000        Charge= 0.17977+309
Lmxo=1 Lmxkb= 3    BasisType=split      Semic=F
L=0  Nsemic=0  Cnfigmx=2
          i=1  nzeta=2  polorb=0  (2s)
            splnorm:   0.15000    
               vcte:    0.0000    
               rinn:    0.0000    
               qcoe:    0.0000    
               qyuk:    0.0000    
               qwid:   0.10000E-01
                rcs:    0.0000      0.0000    
            lambdas:    1.0000      1.0000    
L=1  Nsemic=0  Cnfigmx=2
          i=1  nzeta=2  polorb=1  (2p)
            splnorm:   0.15000    
               vcte:    0.0000    
               rinn:    0.0000    
               qcoe:    0.0000    
               qyuk:    0.0000    
               qwid:   0.10000E-01
                rcs:    0.0000      0.0000    
            lambdas:    1.0000      1.0000    
-------------------------------------------------------------------------------
L=0  Nkbl=1  erefs: 0.17977+309
L=1  Nkbl=1  erefs: 0.17977+309
L=2  Nkbl=1  erefs: 0.17977+309
L=3  Nkbl=1  erefs: 0.17977+309
===============================================================================
</basis_specs>

atom: Called for O                     (Z =   8)

read_vps: Pseudopotential generation method:
read_vps: ATM3      Troullier-Martins                       
Valence charge for ps generation:    6.00000

read_vps: Pseudopotential includes a core correction:
read_vps: Pseudo-core for xc-correction

xc_check: Exchange-correlation functional:
xc_check: Ceperley-Alder
xc_check: WARNING: Pseudopotential generated with GGA PBE functional
V l=0 = -2*Zval/r beyond r=  1.4482
V l=1 = -2*Zval/r beyond r=  1.4482
V l=2 = -2*Zval/r beyond r=  1.4482
V l=3 = -2*Zval/r beyond r=  1.4482
All V_l potentials equal beyond r=  1.4482
This should be close to max(r_c) in ps generation
All pots = -2*Zval/r beyond r=  1.4482

VLOCAL1: 99.0% of the norm of Vloc inside     20.696 Ry
VLOCAL1: 99.9% of the norm of Vloc inside     47.167 Ry
atom: Maximum radius for 4*pi*r*r*local-pseudopot. charge    1.74697
atom: Maximum radius for r*vlocal+2*Zval:    1.52250

KBgen: Kleinman-Bylander projectors: 
GHOST: No ghost state for L =  0
   l= 0   rc=  1.620715   el= -1.738829   Ekb=  4.895054   kbcos=  0.290645
GHOST: No ghost state for L =  1
   l= 1   rc=  1.600578   el= -0.650915   Ekb= -6.916539   kbcos= -0.494696
GHOST: No ghost state for L =  2
   l= 2   rc=  1.703827   el=  0.002386   Ekb= -1.538961   kbcos= -0.006789
GHOST: No ghost state for L =  3
   l= 3   rc=  1.746967   el=  0.003508   Ekb= -0.568530   kbcos= -0.000966

KBgen: Total number of  Kleinman-Bylander projectors:   16
atom: -------------------------------------------------------------------------

atom: SANKEY-TYPE ORBITALS:
atom: Selected multiple-zeta basis: split     

SPLIT: Orbitals with angular momentum L= 0

SPLIT: Basis orbitals for state 2s

SPLIT: PAO cut-off radius determined from an
SPLIT: energy shift=  0.020000 Ry

   izeta = 1
                 lambda =    1.000000
                     rc =    3.305093
                 energy =   -1.720120
                kinetic =    1.583509
    potential(screened) =   -3.303629
       potential(ionic) =  -11.248859

   izeta = 2
                 rmatch =    2.510382
              splitnorm =    0.150000
                 energy =   -1.472890
                kinetic =    2.379100
    potential(screened) =   -3.851990
       potential(ionic) =  -12.389687

SPLIT: Orbitals with angular momentum L= 1

SPLIT: Basis orbitals for state 2p

SPLIT: PAO cut-off radius determined from an
SPLIT: energy shift=  0.020000 Ry

   izeta = 1
                 lambda =    1.000000
                     rc =    3.937239
                 energy =   -0.631844
                kinetic =    4.616405
    potential(screened) =   -5.248250
       potential(ionic) =  -12.927368

   izeta = 2
                 rmatch =    2.573941
              splitnorm =    0.150000
                 energy =   -0.344812
                kinetic =    6.889580
    potential(screened) =   -7.234392
       potential(ionic) =  -15.793960

POLgen: Perturbative polarization orbital with L=  2

POLgen: Polarization orbital for state 2p

   izeta = 1
                     rc =    3.937239
                 energy =    2.368129
                kinetic =    4.725445
    potential(screened) =   -2.357315
       potential(ionic) =   -8.649185
atom: Total number of Sankey-type orbitals: 13

atm_pop: Valence configuration (for local Pseudopot. screening):
 2s( 2.00)                                                            
 2p( 4.00)                                                            
Vna: chval, zval:    6.00000   6.00000

Vna:  Cut-off radius for the neutral-atom potential:   3.937239
comcore: Pseudo-core radius Rcore=  1.377587

atom: _________________________________________________________________________

prinput: Basis input ----------------------------------------------------------

PAO.BasisType split     

%block ChemicalSpeciesLabel
    1    6 C                       # Species index, atomic number, species label
    2    7 N                       # Species index, atomic number, species label
    3    1 H                       # Species index, atomic number, species label
    4    8 O                       # Species index, atomic number, species label
%endblock ChemicalSpeciesLabel

%block PAO.Basis                 # Define Basis set
C                     2                    # Species label, number of l-shells
 n=2   0   2                         # n, l, Nzeta 
   4.192      3.432   
   1.000      1.000   
 n=2   1   2 P   1                   # n, l, Nzeta, Polarization, NzetaPol
   4.994      3.519   
   1.000      1.000   
N                     2                    # Species label, number of l-shells
 n=2   0   2                         # n, l, Nzeta 
   3.684      2.905   
   1.000      1.000   
 n=2   1   2 P   1                   # n, l, Nzeta, Polarization, NzetaPol
   4.389      2.979   
   1.000      1.000   
H                     1                    # Species label, number of l-shells
 n=1   0   2 P   1                   # n, l, Nzeta, Polarization, NzetaPol
   4.828      3.903   
   1.000      1.000   
O                     2                    # Species label, number of l-shells
 n=2   0   2                         # n, l, Nzeta 
   3.305      2.510   
   1.000      1.000   
 n=2   1   2 P   1                   # n, l, Nzeta, Polarization, NzetaPol
   3.937      2.574   
   1.000      1.000   
%endblock PAO.Basis

prinput: ----------------------------------------------------------------------

coor:   Atomic-coordinates input format  =     Cartesian coordinates
coor:                                          (in Angstroms)

siesta: Atomic coordinates (Bohr) and species
siesta:     47.14070   1.95450   4.24970  1        1
siesta:     49.44112   3.35185   3.33824  1        2
siesta:     51.26840   2.04220   1.95339  1        3
siesta:     53.36670   3.34293   1.10713  1        4
siesta:     53.76568   5.82308   1.52569  2        5
siesta:     52.01587   7.10467   2.84589  1        6
siesta:     52.39766   9.66995   3.24584  1        7
siesta:     50.66504  11.14862   4.57870  1        8
siesta:     48.50519  10.04099   5.56786  1        9
siesta:     48.08003   7.46630   5.20259  1       10
siesta:     49.80649   5.96106   3.82218  1       11
siesta:     47.14797  -0.01659   3.61761  3       12
siesta:     45.42331   2.83183   3.50058  3       13
siesta:     47.07365   1.94769   6.31728  3       14
siesta:     51.06792   0.04708   1.52710  3       15
siesta:     54.83014   2.39609   0.02296  3       16
siesta:     54.09207  10.54663   2.48179  3       17
siesta:     51.01388  13.15620   4.83416  3       18
siesta:     47.14748  11.17289   6.61358  3       19
siesta:     46.37528   6.64393   5.99960  3       20
siesta:     19.94912  42.39254  13.85108  1       21
siesta:     18.16906  43.38377  12.10508  1       22
siesta:     17.54179  41.91259   9.94729  1       23
siesta:     18.66591  39.57347   9.47349  1       24
siesta:     20.56087  38.76056  11.11768  1       25
siesta:     21.24697  40.08679  13.36003  1       26
siesta:     20.46703  43.72380  16.12568  1       27
siesta:     19.33871  46.12422  16.44699  1       28
siesta:     17.73713  47.10484  14.75241  2       29
siesta:     17.09987  45.77384  12.65024  1       30
siesta:     23.13609  39.19120  15.09423  1       31
siesta:     23.52348  40.46606  17.42920  1       32
siesta:     22.11199  42.71532  17.96931  1       33
siesta:     22.34612  44.07120  20.27488  1       34
siesta:     21.32119  46.47853  20.60699  1       35
siesta:     20.00311  47.55465  18.57528  1       36
siesta:     21.92708  47.96285  23.01020  1       37
siesta:     21.66968  50.85691  22.68351  1       38
siesta:     21.73687  51.74033  19.91987  1       39
siesta:     19.54295  50.38112  18.56482  1       40
siesta:     24.71901  37.07069  14.57456  1       41
siesta:     26.64820  36.22095  16.18485  1       42
siesta:     26.93737  37.45297  18.47476  1       43
siesta:     25.40026  39.50149  19.08926  1       44
siesta:     15.12831  47.08230  11.01008  1       45
siesta:     15.99266  49.63762   9.88044  1       46
siesta:     18.27815  49.30487   8.14454  1       47
siesta:     13.86807  50.91537   8.37128  1       48
siesta:     17.80512  37.92841   7.27411  1       49
siesta:     15.73040  36.00134   8.00742  1       50
siesta:     14.81560  34.28200   5.81265  1       51
siesta:     16.91602  32.61276   4.73382  1       52
siesta:     12.59377  32.59450   6.62706  1       53
siesta:     24.35622  51.32264  18.67159  1       54
siesta:     24.50870  52.23405  15.92176  1       55
siesta:     27.09449  51.73689  14.71648  1       56
siesta:     29.24712  53.07794  16.06576  1       57
siesta:     20.29611  47.02432  25.24933  1       58
siesta:     21.02784  48.18211  27.78777  1       59
siesta:     28.79833  36.69323  20.08911  4       60
siesta:     28.36817  34.09289  15.36344  1       61
siesta:     27.35578  31.47322  16.04736  1       62
siesta:     29.12695  29.37534  15.17686  1       63
siesta:     16.15260  42.57964   8.59627  3       64
siesta:     21.49396  36.99299  10.64518  3       65
siesta:     23.46656  43.32981  21.81904  3       66
siesta:     23.92251  47.59204  23.45462  3       67
siesta:     23.12788  51.81823  23.80277  3       68
siesta:     19.85751  51.48258  23.48388  3       69
siesta:     21.35819  53.78019  19.90186  3       70
siesta:     19.41319  51.11590  16.63622  3       71
siesta:     17.73831  50.79085  19.49277  3       72
siesta:     24.53543  36.06925  12.78391  3       73
siesta:     25.74559  40.41565  20.89283  3       74
siesta:     13.46452  47.40438  12.21105  3       75
siesta:     14.45758  45.86636   9.48402  3       76
siesta:     16.51858  50.92053  11.42302  3       77
siesta:     17.82366  48.05761   6.55608  3       78
siesta:     19.88702  48.50169   9.16201  3       79
siesta:     18.87770  51.12888   7.37168  3       80
siesta:     13.27969  49.75825   6.75769  3       81
siesta:     14.50919  52.73944   7.62285  3       82
siesta:     12.20588  51.27786   9.54753  3       83
siesta:     19.46285  36.95731   6.49828  3       84
siesta:     17.09556  39.15024   5.75847  3       85
siesta:     14.09289  37.05361   8.72727  3       86
siesta:     16.39409  34.81970   9.57816  3       87
siesta:     14.12325  35.49430   4.28053  3       88
siesta:     17.81782  31.47431   6.20758  3       89
siesta:     18.36600  33.75275   3.80301  3       90
siesta:     16.16252  31.31282   3.30595  3       91
siesta:     13.07518  31.40657   8.25260  3       92
siesta:     12.02173  31.33244   5.08330  3       93
siesta:     10.93871  33.73229   7.12408  3       94
siesta:     24.90819  49.32808  18.71020  3       95
siesta:     25.77016  52.31579  19.81203  3       96
siesta:     24.07234  54.25659  15.82773  3       97
siesta:     23.09612  51.25731  14.76434  3       98
siesta:     27.04325  52.36903  12.74307  3       99
siesta:     27.46970  49.69901  14.67797  3      100
siesta:     28.88027  55.10861  16.20318  3      101
siesta:     31.01977  52.80517  15.03785  3      102
siesta:     29.52187  52.33177  17.97394  3      103
siesta:     20.42676  44.96258  25.42312  3      104
siesta:     18.29928  47.44643  24.87704  3      105
siesta:     22.91649  47.56710  28.36386  3      106
siesta:     19.69133  47.58647  29.25231  3      107
siesta:     21.00491  50.24846  27.73842  3      108
siesta:     28.88750  37.87182  21.49504  3      109
siesta:     30.25687  34.36516  16.17403  3      110
siesta:     28.63797  34.21984  13.30971  3      111
siesta:     25.50048  31.18389  15.17215  3      112
siesta:     27.08824  31.32196  18.09598  3      113
siesta:     29.46681  29.47462  13.13816  3      114
siesta:     28.29969  27.52452  15.59259  3      115
siesta:     30.95262  29.48569  16.14441  3      116

siesta: System type = molecule  

initatomlists: Number of atoms, orbitals, and projectors:    116  1012  1422

coxmol: Writing XMOL coordinates into file siesta.xyz                                                          

siesta: ******************** Simulation parameters ****************************
siesta:
siesta: The following are some of the parameters of the simulation.
siesta: A complete list of the parameters used, including default values,
siesta: can be found in file out.fdf
siesta:
redata: Spin configuration                          = collinear
redata: Number of spin components                   = 2
redata: Time-Reversal Symmetry                      = T
redata: Spin spiral                                 = F
redata: Long output                                 =   T
redata: Number of Atomic Species                    =        4
redata: Charge density info will appear in .RHO file
redata: Write Mulliken Pop.                         = Atomic and Orbital charges
redata: Matel table size (NRTAB)                    =     1024
redata: Mesh Cutoff                                 =   100.0000 Ry
redata: Net charge of the system                    =     0.0000 |e|
redata: Min. number of SCF Iter                     =        0
redata: Max. number of SCF Iter                     =      100
redata: SCF convergence failure will abort job
redata: SCF mix quantity                            = Hamiltonian
redata: Mix DM or H after convergence               =   F
redata: Recompute H after scf cycle                 =   F
redata: Mix DM in first SCF step                    =   T
redata: Write Pulay info on disk                    =   F
redata: New DM Occupancy tolerance                  = 0.000000000001
redata: No kicks to SCF
redata: DM Mixing Weight for Kicks                  =     0.5000
redata: Require Harris convergence for SCF          =   F
redata: Harris energy tolerance for SCF             =     0.000100 eV
redata: Require DM convergence for SCF              =   T
redata: DM tolerance for SCF                        =     0.001000
redata: Require EDM convergence for SCF             =   F
redata: EDM tolerance for SCF                       =     0.001000 eV
redata: Require H convergence for SCF               =   T
redata: Hamiltonian tolerance for SCF               =     0.001000 eV
redata: Require (free) Energy convergence for SCF   =   F
redata: (free) Energy tolerance for SCF             =     0.000100 eV
redata: Antiferro initial spin density              =   F
redata: Using Saved Data (generic)                  =   F
redata: Use continuation files for DM               =   F
redata: Neglect nonoverlap interactions             =   F
redata: Method of Calculation                       = Diagonalization
redata: Electronic Temperature                      =   299.9869 K
redata: Fix the spin of the system                  =   F
redata: Max. number of TDED Iter                    =        1
redata: Number of TDED substeps                     =        3
redata: Dynamics option                             = Nose thermostat MD run
redata: Initial MD time step                        =        1
redata:   Final MD time step                        =       10
redata: Length of MD time step                      =     1.0000 fs
redata: Initial Temperature of MD run               =   300.0000 K
redata: Perform a MD quench                         =   F
redata: Nose mass                                   =  1360.5800 eV/fs**2
redata: Target Temperature                          =   300.0000 Kelvin
mix.SCF: Pulay mixing                            = Pulay
mix.SCF:    Variant                              = stable
mix.SCF:    History steps                        = 3
mix.SCF:    Linear mixing weight                 =     0.250000
mix.SCF:    Mixing weight                        =     0.250000
mix.SCF:    SVD condition                        = 0.1000E-07
mix.SCF: Spin-component mixing                   all
redata: ***********************************************************************

%block SCF.Mixers
  Pulay
%endblock SCF.Mixers

%block SCF.Mixer.Pulay
  # Mixing method
  method pulay
  variant stable

  # Mixing options
  weight 0.2500
  weight.linear 0.2500
  history 3
%endblock SCF.Mixer.Pulay

Size of DM history Fstack: 1
Total number of electrons:   282.000000
Total ionic charge:   282.000000
 Kpoints in:            1 . Kpoints trimmed:            1

siesta: k-point coordinates (Bohr**-1) and weights:
siesta:          1  0.000000E+00  0.000000E+00  0.000000E+00   0.100000E+01

siesta: k-grid: Number of k-points =         1
siesta: k-points from Monkhorst-Pack grid
siesta: k-cutoff (effective) =    11.734 Ang
siesta: k-point supercell and displacements
siesta: k-grid:    1   0   0      0.000
siesta: k-grid:    0   1   0      0.000
siesta: k-grid:    0   0   1      0.000
 Kpoints in:            1 . Kpoints trimmed:            1

siesta: PDOS k-point coordinates (Bohr**-1) and weights:
siesta:          1  0.000000E+00  0.000000E+00  0.000000E+00   0.100000E+01

siesta: PDOS k-grid: Number of k-points =         1
siesta: PDOS k-points from Monkhorst-Pack grid
siesta: PDOS k-cutoff (effective) =     0.000 Ang
siesta: PDOS k-point supercell and displacements
siesta: k-grid:    1   0   0      0.000
siesta: k-grid:    0   1   0      0.000
siesta: k-grid:    0   0   1      0.000

diag: Algorithm                                     = D&C
diag: Used triangular part                          = Lower
diag: Absolute tolerance                            =  0.100E-15
diag: Orthogonalization factor                      =  0.100E-05
diag: Memory factor                                 =  1.0000
Using LatticeConstant from fdf file for BandLinesScale:    1.889727 Bohr
Beware any cell changes by the end of the run
Using LatticeConstant from fdf file for BandLinesScale:    1.889727 Bohr
Beware any cell changes by the end of the run


ts: **************************************************************
ts: Save H and S matrices                           =    F
ts: Save DM and EDM matrices                        =    F
ts: Only save the overlap matrix S                  =    F
ts: **************************************************************

************************ Begin: TS CHECKS AND WARNINGS ************************
************************ End: TS CHECKS AND WARNINGS **************************


                     ====================================
                        Begin MD step =      1
                     ====================================

outcoor: Atomic coordinates (Ang):                          
   24.94577200    1.03427800    2.24884600   1       1  C
   26.16310600    1.77372300    1.76651800   1       2  C
   27.13005600    1.08068700    1.03369100   1       3  C
   28.24042900    1.76900200    0.58587000   1       4  C
   28.45156000    3.08144200    0.80736200   2       5  N
   27.52560400    3.75962900    1.50598000   1       6  C
   27.72763600    5.11711700    1.71762500   1       7  C
   26.81077400    5.89959400    2.42294300   1       8  C
   25.66783200    5.31346100    2.94638400   1       9  C
   25.44284400    3.95099500    2.75309100   1      10  C
   26.35644800    3.15445700    2.02261000   1      11  C
   24.94962200   -0.00877900    1.91435400   3      12  H
   24.03697300    1.49854100    1.85242600   3      13  H
   24.91029100    1.03067500    3.34295900   3      14  H
   27.02396800    0.02491300    0.80810800   3      15  H
   29.01484800    1.26795500    0.01215100   3      16  H
   28.62428100    5.58103500    1.31330700   3      17  H
   26.99537400    6.96195900    2.55812800   3      18  H
   24.94936000    5.91243500    3.49975600   3      19  H
   24.54073400    3.51581600    3.17484800   3      20  H
   10.55661500   22.43315500    7.32967500   1      21  C
    9.61465100   22.95769100    6.40573100   1      22  C
    9.28271400   22.17917700    5.26387600   1      23  C
    9.87756900   20.94137000    5.01315500   1      24  C
   10.88033900   20.51119700    5.88322300   1      25  C
   11.24341000   21.21300800    7.06982300   1      26  C
   10.83068200   23.13762700    8.53334000   1      27  C
   10.23359800   24.40787900    8.70336700   1      28  C
    9.38608100   24.92679700    7.80663600   2      29  N
    9.04885900   24.22246200    6.69421800   1      30  C
   12.24308600   20.73908100    7.98751700   1      31  C
   12.44808400   21.41370800    9.22313100   1      32  C
   11.70115600   22.60396600    9.50894300   1      33  C
   11.82505500   23.32146700   10.72899900   1      34  C
   11.28268400   24.59537000   10.90474300   1      35  C
   10.58518800   25.16482900    9.82961200   1      36  C
   11.60330800   25.38083600   12.17646900   1      37  C
   11.46709500   26.91230700   12.00359300   1      38  C
   11.50265400   27.37979400   10.54113700   1      39  C
   10.34168000   26.66052800    9.82407700   1      40  C
   13.08073400   19.61695800    7.71252300   1      41  C
   14.10161200   19.16729600    8.56465200   1      42  C
   14.25463800   19.81924800    9.77641900   1      43  C
   13.44123100   20.90328100   10.10159800   1      44  C
    8.00555600   24.91487100    5.82627900   1      45  C
    8.46294900   26.26708600    5.22850200   1      46  C
    9.67237500   26.09100400    4.30990300   1      47  C
    7.33866400   26.94324200    4.42989000   1      48  C
    9.42205800   20.07084300    3.84929300   1      49  C
    8.32416700   19.05108000    4.23734300   1      50  C
    7.84007700   18.14124400    3.07592200   1      51  C
    8.95157000   17.25792200    2.50502700   1      52  C
    6.66433200   17.24826000    3.50688900   1      53  C
   12.88875000   27.15875900    9.88057400   1      54  C
   12.96944000   27.64105800    8.42542900   1      55  C
   14.33777900   27.37797200    7.78762100   1      56  C
   15.47690500   28.08762500    8.50163200   1      57  C
   10.74023300   24.88418800   13.36136600   1      58  C
   11.12745000   25.49686200   14.70464700   1      59  C
   15.23941200   19.41721100   10.63069700   4      60  O
   15.01178400   18.04117200    8.12997900   1      61  C
   14.47604800   16.65490300    8.49189500   1      62  C
   15.41331100   15.54475200    8.03124400   1      63  C
    8.54758700   22.53216800    4.54894900   3      64  H
   11.37411100   19.57583900    5.63318600   3      65  H
   12.41796500   22.92914100   11.54613400   3      66  H
   12.65924100   25.18461300   12.41164700   3      67  H
   12.23874300   27.42101700   12.59587700   3      68  H
   10.50813900   27.24339600   12.42712800   3      69  H
   11.30226100   28.45923900   10.53160500   3      70  H
   10.27301600   27.04936000    8.80350600   3      71  H
    9.38670500   26.87734900   10.31512700   3      72  H
   12.98358500   19.08701700    6.76495300   3      73  H
   13.62397400   21.38703000   11.05600500   3      74  H
    7.12511400   25.08530800    6.46180500   3      75  H
    7.65061800   24.27142200    5.01872700   3      76  H
    8.74125400   26.94597200    6.04480100   3      77  H
    9.43186900   25.43098400    3.46932900   3      78  H
   10.52375100   25.66597700    4.84832500   3      79  H
    9.98964400   27.05622700    3.90092500   3      80  H
    7.02730700   26.33092300    3.57601400   3      81  H
    7.67793000   27.90850000    4.03383500   3      82  H
    6.45907100   27.13506400    5.05233100   3      83  H
   10.29929000   19.55696100    3.43873800   3      84  H
    9.04657600   20.71740600    3.04724800   3      85  H
    7.45763100   19.60791700    4.61827000   3      86  H
    8.67537800   18.42578200    5.06854000   3      87  H
    7.47369800   18.78276900    2.26515600   3      88  H
    9.42878100   16.65548000    3.28490600   3      89  H
    9.71886600   17.86117700    2.01246700   3      90  H
    8.55283200   16.57002600    1.74943400   3      91  H
    6.91908600   16.61963600    4.36708700   3      92  H
    6.36162300   16.58040900    2.68996800   3      93  H
    5.78851500   17.85035400    3.76989800   3      94  H
   13.18083900   26.10328500    9.90100700   3      95  H
   13.63697400   27.68431400   10.48407100   3      96  H
   12.73853000   28.71134100    8.37567000   3      97  H
   12.22193500   27.12419200    7.81295100   3      98  H
   14.31066700   27.71248700    6.74333800   3      99  H
   14.53633300   26.29957100    7.76724400   3     100  H
   15.28277600   29.16220700    8.57435000   3     101  H
   16.41495000   27.94328400    7.95768600   3     102  H
   15.62229600   27.69277100    9.51139400   3     103  H
   10.80937000   23.79316100   13.45333300   3     104  H
    9.68355900   25.10756000   13.16435600   3     105  H
   12.12687900   25.17141500   15.00950200   3     106  H
   10.42019700   25.18166300   15.47964900   3     107  H
   11.11531700   26.59032900   14.67853300   3     108  H
   15.28660300   20.04089400   11.37468100   3     109  H
   16.01123900   18.18525400    8.55892500   3     110  H
   15.15455400   18.10835000    7.04319000   3     111  H
   13.49426500   16.50179800    8.02875500   3     112  H
   14.33447300   16.57486000    9.57597400   3     113  H
   15.59315900   15.59728900    6.95241200   3     114  H
   14.97554500   14.56534200    8.25123800   3     115  H
   16.37941500   15.60314800    8.54325200   3     116  H

outcell: Unit cell vectors (Ang):
       31.226333    0.000000    0.000000
        0.000000   37.170986    0.000000
        0.000000    0.000000   23.467498

outcell: Cell vector modules (Ang)   :   31.226333   37.170986   23.467498
outcell: Cell angles (23,13,12) (deg):     90.0000     90.0000     90.0000
outcell: Cell volume (Ang**3)        :  27239.0438
<dSpData1D:S at geom step 1
  <sparsity:sparsity for geom step 1
    nrows_g=1012 nrows=1012 sparsity=.2616 nnzs=267932, refcount: 7>
  <dData1D:(new from dSpData1D) n=267932, refcount: 1>
refcount: 1>
new_DM -- step:     1
Initializing Density Matrix...
DM filled with atomic data:
<dSpData2D:DM initialized from atoms
  <sparsity:sparsity for geom step 1
    nrows_g=1012 nrows=1012 sparsity=.2616 nnzs=267932, refcount: 8>
  <dData2D:DM n=267932 m=2, refcount: 1>
refcount: 1>
     spin moment: S , {S} =  172.00000       0.0       0.0 172.00000
No. of atoms with KB's overlaping orbs in proc 0. Max # of overlaps:     116     202

InitMesh: MESH = 192 x 240 x 144 = 6635520
InitMesh: Mesh cutoff (required, used) =   100.000   104.062 Ry
New grid distribution [1]: sub = 2

stepf: Fermi-Dirac step function

siesta: Program's energy decomposition (eV):
siesta: Ebs     =     -2887.145238
siesta: Eions   =     15634.959410
siesta: Ena     =      3264.413222
siesta: Ekin    =      7504.016630
siesta: Enl     =     -1144.125305
siesta: Eso     =         0.000000
siesta: Edftu   =         0.000000
siesta: DEna    =      -499.571708
siesta: DUscf   =        77.823274
siesta: DUext   =         0.000000
siesta: Exc     =     -3748.416713
siesta: eta*DQ  =         0.000000
siesta: Emadel  =         0.000000
siesta: Emeta   =         0.000000
siesta: Emolmec =         0.000000
siesta: Ekinion =         0.000000
siesta: Eharris =    -10182.662134
siesta: Etot    =    -10180.820011
siesta: FreeEng =    -10180.821413

        iscf     Eharris(eV)        E_KS(eV)     FreeEng(eV)     dDmax    Ef(eV) dHmax(eV)
   scf:    1   -10182.662134   -10180.820011   -10180.821413  0.978751 -5.399398 13.695903
     spin moment: S , {S} =    4.00000       0.0       0.0   4.00000
timer: Routine,Calls,Time,% = IterSCF        1      37.127  20.58
   scf:    2   -10121.169355   -10178.726321   -10178.726459  0.421961 -4.369931 22.752616
     spin moment: S , {S} =    4.00059       0.0       0.0   4.00059
   scf:    3   -10218.449049   -10210.279528   -10210.321990  0.445473 -4.413704  6.168302
     spin moment: S , {S} =    0.85074       0.0       0.0   0.85074
   scf:    4   -10218.642230   -10215.609736   -10215.609963  0.058486 -3.595642  4.095232
     spin moment: S , {S} =    0.00102       0.0       0.0   0.00102
   scf:    5   -10216.882241   -10216.373537   -10216.373537  0.017284 -3.653514  1.520034
     spin moment: S , {S} =    0.00000       0.0       0.0   0.00000
   scf:    6   -10216.897216   -10216.646049   -10216.646049  0.016822 -3.507880  0.935944
     spin moment: S , {S} =    0.00000       0.0       0.0   0.00000
   scf:    7   -10216.820198   -10216.733793   -10216.733793  0.009585 -3.338089  0.440372
     spin moment: S , {S} =    0.00000       0.0       0.0   0.00000
   scf:    8   -10216.787043   -10216.761458   -10216.761458  0.007110 -3.255249  0.135486
     spin moment: S , {S} =    0.00000       0.0       0.0   0.00000
   scf:    9   -10216.768195   -10216.764934   -10216.764934  0.002050 -3.241006  0.059744
     spin moment: S , {S} =    0.00000       0.0       0.0   0.00000
   scf:   10   -10216.766998   -10216.765973   -10216.765973  0.000997 -3.237210  0.034182
     spin moment: S , {S} =    0.00000       0.0       0.0   0.00000
   scf:   11   -10216.766937   -10216.766446   -10216.766446  0.000866 -3.233366  0.015154
     spin moment: S , {S} =    0.00000       0.0       0.0   0.00000
   scf:   12   -10216.766648   -10216.766543   -10216.766543  0.000280 -3.231198  0.009096
     spin moment: S , {S} =   -0.00000       0.0       0.0  -0.00000
   scf:   13   -10216.766635   -10216.766584   -10216.766584  0.000193 -3.229752  0.005496
     spin moment: S , {S} =    0.00000       0.0       0.0   0.00000
   scf:   14   -10216.766619   -10216.766601   -10216.766601  0.000126 -3.229012  0.002813
     spin moment: S , {S} =    0.00000       0.0       0.0   0.00000
   scf:   15   -10216.766607   -10216.766604   -10216.766604  0.000045 -3.228970  0.001742
     spin moment: S , {S} =   -0.00000       0.0       0.0  -0.00000
   scf:   16   -10216.766607   -10216.766605   -10216.766605  0.000034 -3.229005  0.001064
     spin moment: S , {S} =    0.00000       0.0       0.0   0.00000
   scf:   17   -10216.766606   -10216.766606   -10216.766606  0.000022 -3.229091  0.000632
     spin moment: S , {S} =   -0.00000       0.0       0.0  -0.00000

SCF Convergence by DM+H criterion
max |DM_out - DM_in|         :     0.0000216989
max |H_out - H_in|      (eV) :     0.0006319964
SCF cycle converged after 17 iterations

Using DM_out to compute the final energy and forces
No. of atoms with KB's overlaping orbs in proc 0. Max # of overlaps:     116     202

siesta: E_KS(eV) =           -10216.7666

siesta: E_KS - E_eggbox =    -10216.7666
     spin moment: S , {S} =   -0.00000       0.0       0.0  -0.00000

siesta: Atomic forces (eV/Ang):
     1    0.729008    0.526587   -0.275888
     2   -0.252217   -1.129287   -0.126588
     3   -0.970681    0.558084    0.686484
     4    0.734215    2.323163    0.236405
     5    0.853213   -1.105898   -0.549039
     6    0.098181   -0.681694   -0.266171
     7   -0.417739    1.726832    0.648753
     8    1.103609   -0.546438   -0.716375
     9   -0.406680   -1.201123   -0.047889
    10    0.162573    0.608877    0.031855
    11   -0.779920   -0.258528    0.373467
    12    0.115837   -0.540307   -0.210815
    13   -0.640738    0.335769   -0.083549
    14   -0.180315    0.068292    0.701742
    15   -0.201233   -0.780972   -0.095192
    16    0.612035   -0.405651   -0.448214
    17    0.649988    0.116427   -0.340033
    18    0.156851    0.679371    0.076912
    19   -0.481153    0.331411    0.367160
    20   -0.596898   -0.425472    0.227943
    21    0.461122   -0.236029    0.409609
    22   -0.017276   -0.954028   -0.825456
    23    0.276517    0.019348    0.453180
    24   -0.350228   -0.047273   -0.278792
    25    0.199601    0.411751    0.925887
    26   -0.737023   -0.439766   -1.393131
    27    0.002896   -0.459665   -0.428376
    28    0.464329   -0.552788    0.172284
    29   -0.593199    0.100029   -2.070091
    30   -0.215350    2.178666    1.468535
    31    0.771252   -0.801906    0.259815
    32    0.669109   -0.794599    0.234161
    33   -0.031313    0.733867    1.210561
    34   -0.248945   -0.283890   -0.912098
    35    0.157888    0.467032    0.000299
    36   -0.042620    1.595833    0.563726
    37   -0.901906    0.167385   -0.240493
    38    0.129262   -0.481492   -0.676569
    39    0.243863   -1.084584    0.282671
    40    1.057689   -0.468642    0.350974
    41    0.003516    0.532189    0.626525
    42   -0.222414   -0.680607   -1.543821
    43    0.179599    0.838953    1.416064
    44   -0.435043   -0.018577   -0.786895
    45    0.919861    0.511713    0.356356
    46   -0.252880   -0.472456   -0.945516
    47   -0.638419    0.087858    0.704435
    48    0.632445   -0.441055    0.650281
    49   -0.302300   -0.038022    1.059260
    50    0.276091    0.050787   -1.216052
    51    0.274018   -0.669577    0.847230
    52   -0.601760    0.701446    0.242623
    53    0.680952    0.746518   -0.259022
    54   -1.180793    0.513243   -0.572478
    55    0.850418   -0.664928    0.613431
    56   -0.272346    0.705182    0.790582
    57   -0.563559   -0.486509   -0.442194
    58    0.806774    0.652720    0.072070
    59   -0.259047   -0.372793   -0.811588
    60    3.732070   -2.410054   -4.853927
    61   -0.884332    0.050643    0.501060
    62    0.938453    0.015630   -0.495178
    63   -0.550487    0.532215    0.295268
    64   -0.628483    0.409987   -0.477344
    65    0.424794   -0.724754   -0.039441
    66    0.572449   -0.487796    0.634520
    67    0.651241   -0.310874    0.207289
    68    0.506436    0.269425    0.337600
    69   -0.637750    0.144739    0.272493
    70   -0.150374    0.694510   -0.049124
    71   -0.325619   -0.108919   -0.835614
    72   -0.638960    0.350084    0.356454
    73   -0.121424   -0.248753   -0.635516
    74    0.100684    0.458914    0.736219
    75   -0.436432    0.168405    0.465414
    76   -0.124017   -0.556435   -0.691995
    77    0.236161    0.241066    0.745188
    78   -0.151712   -0.456414   -0.530883
    79    0.581560   -0.384612    0.380169
    80    0.178577    0.558325   -0.274937
    81   -0.191963   -0.434089   -0.515893
    82    0.197780    0.507079   -0.209778
    83   -0.583837    0.082176    0.376377
    84    0.555241   -0.463573   -0.255127
    85   -0.294431    0.426059   -0.535197
    86   -0.504346    0.369364    0.309048
    87    0.281712   -0.426904    0.546400
    88   -0.218757    0.535518   -0.567419
    89    0.299985   -0.364727    0.536274
    90    0.614990    0.352753   -0.266071
    91   -0.231258   -0.372811   -0.396807
    92    0.219801   -0.352329    0.551308
    93   -0.118752   -0.336243   -0.440650
    94   -0.528604    0.346662    0.267416
    95    0.049604   -0.896973    0.097038
    96    0.503696    0.422586    0.435900
    97   -0.175908    0.769333   -0.044311
    98   -0.668313   -0.366961   -0.320365
    99   -0.036784    0.148843   -0.647469
   100    0.069087   -0.714406   -0.027893
   101   -0.083287    0.695338    0.078148
   102    0.622978   -0.015452   -0.284901
   103    0.096329   -0.186636    0.668782
   104    0.053491   -0.715209   -0.110933
   105   -0.635817    0.154739   -0.328682
   106    0.650519   -0.138549    0.198521
   107   -0.348094   -0.176362    0.475802
   108    0.009029    0.718235   -0.047479
   109    0.005909    0.111018    0.219441
   110    0.580933    0.105064    0.552682
   111   -0.003605   -0.011536   -0.694031
   112   -0.694019    0.043682   -0.244552
   113   -0.139799    0.109836    0.720646
   114    0.136098    0.040014   -0.658584
   115   -0.176938   -0.605932    0.098111
   116    0.606840    0.046209    0.267004
----------------------------------------
   Tot    4.671062   -1.624074   -3.650580
----------------------------------------
   Max    4.853927
   Res    0.672934    sqrt( Sum f_i^2 / 3N )
----------------------------------------
   Max    4.853927    constrained

Stress tensor Voigt[x,y,z,yz,xz,xy] (kbar):       -1.23       -1.05       -0.91        0.05       -0.00        0.22
(Free)E + p*V (eV/cell)   -10198.6968
Target enthalpy (eV/cell)   -10216.7666

siesta: Stress tensor (static) (eV/Ang**3):
        -0.000642    0.000162    0.000011
         0.000162   -0.000546    0.000038
         0.000011    0.000038   -0.000478

siesta: Pressure (static):          0.88926164  kBar

siesta: Stress tensor (total) (eV/Ang**3):
        -0.000765    0.000139   -0.000003
         0.000139   -0.000655    0.000029
        -0.000003    0.000029   -0.000570

siesta: Pressure (total):          1.06286380  kBar

mulliken: Atomic and Orbital Populations:

mulliken: Spin UP 

Species: C                   
Atom  Qatom  Qorb
               2s      2s      2py     2pz     2px     2py     2pz     2px     
               3Pdxy   3Pdyz   3Pdz2   3Pdxz   3Pdx2-y2
   1  1.702  -0.039   0.405   0.084   0.081   0.161   0.340   0.342   0.283
              0.008   0.004   0.011   0.007   0.013
   2  1.958   0.223   0.268   0.236   0.314   0.240   0.242   0.136   0.215
              0.022   0.017   0.012   0.011   0.023
   3  1.885   0.148   0.297   0.064   0.340   0.280   0.360   0.133   0.205
              0.011   0.007   0.009   0.010   0.020
   4  1.951   0.188   0.277   0.298   0.294   0.190   0.188   0.155   0.268
              0.035   0.021   0.007   0.008   0.020
   6  2.061   0.253   0.245   0.233   0.359   0.315   0.250   0.117   0.174
              0.026   0.021   0.015   0.017   0.036
   7  1.877   0.155   0.298   0.212   0.309   0.140   0.263   0.146   0.297
              0.016   0.013   0.007   0.006   0.015
   8  1.873   0.146   0.299   0.068   0.335   0.264   0.362   0.129   0.209
              0.013   0.007   0.011   0.011   0.021
   9  1.873   0.144   0.300   0.187   0.290   0.189   0.275   0.163   0.263
              0.020   0.014   0.005   0.008   0.015
  10  1.893   0.156   0.296   0.223   0.321   0.151   0.253   0.142   0.289
              0.019   0.015   0.008   0.005   0.016
  11  1.988   0.220   0.264   0.231   0.320   0.257   0.250   0.147   0.221
              0.022   0.016   0.012   0.009   0.020
  21  1.997   0.220   0.267   0.265   0.257   0.302   0.212   0.220   0.169
              0.013   0.019   0.020   0.014   0.017
  22  1.986   0.217   0.266   0.249   0.251   0.312   0.229   0.217   0.165
              0.015   0.017   0.020   0.013   0.016
  23  1.911   0.166   0.291   0.271   0.211   0.239   0.214   0.246   0.211
              0.011   0.016   0.012   0.011   0.013
  24  1.960   0.219   0.268   0.243   0.272   0.282   0.222   0.190   0.180
              0.017   0.018   0.018   0.013   0.019
  25  1.907   0.165   0.293   0.144   0.286   0.280   0.291   0.197   0.189
              0.011   0.011   0.018   0.012   0.010
  26  1.988   0.218   0.268   0.264   0.262   0.302   0.210   0.209   0.172
              0.013   0.019   0.020   0.014   0.018
  27  1.998   0.221   0.265   0.258   0.250   0.312   0.225   0.226   0.161
              0.012   0.019   0.020   0.013   0.016
  28  2.091   0.264   0.239   0.287   0.307   0.370   0.207   0.182   0.120
              0.023   0.026   0.029   0.017   0.021
  30  2.045   0.280   0.241   0.299   0.331   0.287   0.185   0.147   0.162
              0.017   0.028   0.025   0.020   0.023
  31  1.992   0.218   0.266   0.282   0.258   0.295   0.192   0.220   0.181
              0.012   0.017   0.019   0.016   0.018
  32  1.987   0.216   0.269   0.272   0.252   0.292   0.202   0.222   0.177
              0.013   0.018   0.020   0.016   0.019
  33  1.991   0.216   0.267   0.276   0.243   0.312   0.202   0.229   0.163
              0.012   0.019   0.020   0.016   0.017
  34  1.912   0.167   0.290   0.259   0.159   0.300   0.222   0.290   0.162
              0.010   0.018   0.012   0.012   0.011
  35  1.982   0.231   0.266   0.253   0.233   0.313   0.222   0.232   0.145
              0.015   0.021   0.020   0.015   0.016
  36  1.981   0.232   0.265   0.223   0.255   0.327   0.239   0.224   0.132
              0.017   0.024   0.019   0.010   0.013
  37  1.884   0.130   0.325   0.233   0.242   0.097   0.220   0.220   0.326
              0.015   0.021   0.021   0.013   0.020
  38  1.809   0.067   0.358   0.201   0.176   0.071   0.243   0.270   0.351
              0.014   0.019   0.011   0.017   0.012
  39  1.852   0.124   0.326   0.082   0.234   0.222   0.338   0.216   0.220
              0.014   0.011   0.022   0.021   0.022
  40  1.806   0.049   0.366   0.227   0.098   0.120   0.227   0.339   0.309
              0.015   0.013   0.015   0.010   0.019
  41  1.909   0.170   0.290   0.264   0.135   0.318   0.202   0.301   0.165
              0.010   0.014   0.013   0.009   0.017
  42  1.972   0.221   0.265   0.286   0.243   0.273   0.185   0.226   0.191
              0.012   0.017   0.020   0.015   0.018
  43  2.032   0.252   0.242   0.304   0.243   0.309   0.189   0.210   0.148
              0.021   0.027   0.031   0.028   0.030
  44  1.911   0.167   0.286   0.280   0.131   0.323   0.198   0.304   0.166
              0.008   0.012   0.013   0.008   0.015
  45  1.803   0.053   0.366   0.203   0.116   0.118   0.251   0.319   0.311
              0.012   0.018   0.008   0.014   0.014
  46  1.839   0.117   0.326   0.164   0.148   0.208   0.266   0.288   0.234
              0.017   0.022   0.014   0.017   0.018
  47  1.706  -0.030   0.403   0.068   0.111   0.143   0.351   0.315   0.297
              0.010   0.012   0.008   0.009   0.009
  48  1.702  -0.029   0.403   0.091   0.097   0.130   0.333   0.325   0.304
              0.007   0.010   0.007   0.012   0.012
  49  1.792   0.048   0.364   0.180   0.122   0.142   0.269   0.304   0.295
              0.015   0.017   0.011   0.013   0.013
  50  1.800   0.068   0.357   0.168   0.127   0.143   0.276   0.300   0.292
              0.017   0.017   0.011   0.013   0.012
  51  1.842   0.119   0.325   0.177   0.144   0.206   0.261   0.284   0.238
              0.019   0.022   0.014   0.017   0.017
  52  1.706  -0.028   0.401   0.108   0.082   0.135   0.318   0.341   0.301
              0.011   0.014   0.004   0.011   0.008
  53  1.702  -0.027   0.401   0.105   0.075   0.139   0.319   0.345   0.297
              0.011   0.014   0.005   0.008   0.010
  54  1.810   0.070   0.353   0.086   0.201   0.161   0.339   0.250   0.277
              0.013   0.011   0.016   0.020   0.013
  55  1.786   0.054   0.359   0.074   0.193   0.163   0.345   0.250   0.279
              0.011   0.011   0.016   0.020   0.013
  56  1.770   0.045   0.362   0.087   0.098   0.228   0.335   0.326   0.220
              0.013   0.006   0.019   0.012   0.019
  57  1.696  -0.033   0.400   0.091   0.094   0.137   0.330   0.329   0.301
              0.005   0.005   0.012   0.009   0.016
  58  1.780   0.054   0.361   0.086   0.230   0.103   0.336   0.222   0.318
              0.004   0.012   0.021   0.013   0.019
  59  1.695  -0.033   0.400   0.083   0.170   0.072   0.339   0.271   0.346
              0.003   0.007   0.011   0.013   0.012
  61  1.793   0.046   0.365   0.252   0.081   0.096   0.214   0.342   0.326
              0.014   0.011   0.016   0.008   0.021
  62  1.776   0.048   0.361   0.233   0.077   0.108   0.218   0.346   0.316
              0.014   0.012   0.016   0.008   0.020
  63  1.691  -0.034   0.401   0.133   0.074   0.110   0.301   0.344   0.315
              0.007   0.005   0.012   0.008   0.014

Species: N                   
Atom  Qatom  Qorb
               2s      2s      2py     2pz     2px     2py     2pz     2px     
               3Pdxy   3Pdyz   3Pdz2   3Pdxz   3Pdx2-y2
   5  2.392   0.293   0.310   0.286   0.429   0.593   0.247   0.114   0.076
              0.011   0.009   0.007   0.006   0.011
  29  2.387   0.285   0.311   0.610   0.231   0.427   0.082   0.262   0.133
              0.007   0.012   0.011   0.009   0.007

Species: H                   
Atom  Qatom  Qorb
               1s      1s      2Ppy    2Ppz    2Ppx    
  12  0.597   0.374   0.174   0.016   0.017   0.016
  13  0.599   0.367   0.179   0.018   0.017   0.018
  14  0.600   0.368   0.178   0.019   0.017   0.018
  15  0.627   0.414   0.157   0.024   0.017   0.014
  16  0.618   0.411   0.161   0.009   0.018   0.019
  17  0.628   0.417   0.155   0.015   0.018   0.022
  18  0.625   0.416   0.155   0.023   0.017   0.014
  19  0.626   0.417   0.155   0.016   0.020   0.019
  20  0.628   0.414   0.157   0.016   0.019   0.022
  64  0.627   0.405   0.165   0.016   0.019   0.022
  65  0.625   0.403   0.166   0.023   0.014   0.018
  66  0.626   0.401   0.169   0.016   0.020   0.020
  67  0.602   0.356   0.194   0.017   0.017   0.018
  68  0.604   0.374   0.180   0.016   0.018   0.017
  69  0.599   0.360   0.189   0.016   0.017   0.017
  70  0.608   0.375   0.182   0.017   0.017   0.017
  71  0.607   0.353   0.195   0.018   0.021   0.019
  72  0.608   0.378   0.175   0.019   0.019   0.017
  73  0.623   0.400   0.168   0.018   0.023   0.014
  74  0.630   0.405   0.166   0.019   0.024   0.017
  75  0.603   0.368   0.182   0.017   0.017   0.019
  76  0.602   0.358   0.193   0.017   0.016   0.018
  77  0.614   0.368   0.188   0.018   0.021   0.019
  78  0.607   0.385   0.169   0.018   0.018   0.016
  79  0.610   0.388   0.167   0.020   0.018   0.017
  80  0.604   0.383   0.170   0.016   0.018   0.017
  81  0.606   0.384   0.170   0.016   0.018   0.018
  82  0.602   0.382   0.170   0.016   0.018   0.016
  83  0.605   0.386   0.168   0.018   0.016   0.017
  84  0.603   0.363   0.187   0.018   0.018   0.017
  85  0.603   0.370   0.181   0.016   0.017   0.017
  86  0.606   0.378   0.177   0.016   0.019   0.017
  87  0.608   0.376   0.179   0.016   0.019   0.017
  88  0.610   0.371   0.185   0.018   0.018   0.018
  89  0.607   0.386   0.168   0.018   0.016   0.018
  90  0.602   0.376   0.175   0.017   0.017   0.017
  91  0.602   0.381   0.171   0.017   0.016   0.016
  92  0.606   0.383   0.170   0.018   0.017   0.017
  93  0.602   0.381   0.171   0.018   0.016   0.016
  94  0.604   0.384   0.169   0.016   0.018   0.017
  95  0.614   0.374   0.182   0.021   0.018   0.020
  96  0.605   0.371   0.181   0.018   0.016   0.018
  97  0.610   0.382   0.175   0.017   0.017   0.018
  98  0.604   0.369   0.182   0.018   0.017   0.019
  99  0.607   0.381   0.175   0.018   0.017   0.017
 100  0.607   0.377   0.178   0.017   0.018   0.017
 101  0.608   0.388   0.168   0.017   0.019   0.017
 102  0.605   0.387   0.167   0.018   0.017   0.016
 103  0.602   0.375   0.176   0.017   0.017   0.017
 104  0.607   0.377   0.178   0.017   0.017   0.018
 105  0.606   0.372   0.181   0.018   0.017   0.017
 106  0.606   0.385   0.169   0.018   0.018   0.016
 107  0.602   0.383   0.169   0.018   0.016   0.016
 108  0.604   0.379   0.173   0.017   0.017   0.018
 109  0.574   0.199   0.254   0.048   0.038   0.035
 110  0.611   0.375   0.180   0.017   0.022   0.018
 111  0.602   0.368   0.183   0.016   0.017   0.018
 112  0.609   0.378   0.177   0.017   0.017   0.019
 113  0.609   0.379   0.177   0.018   0.017   0.019
 114  0.605   0.384   0.169   0.017   0.016   0.018
 115  0.603   0.384   0.168   0.016   0.018   0.017
 116  0.604   0.383   0.170   0.017   0.017   0.017

Species: O                   
Atom  Qatom  Qorb
               2s      2s      2py     2pz     2px     2py     2pz     2px     
               3Pdxy   3Pdyz   3Pdz2   3Pdxz   3Pdx2-y2
  60  2.851   0.393   0.303   0.679   0.397   0.644   0.092   0.219   0.103
              0.003   0.006   0.003   0.003   0.004

mulliken: Qtot =      141.000

mulliken: Spin DOWN 

Species: C                   
Atom  Qatom  Qorb
               2s      2s      2py     2pz     2px     2py     2pz     2px     
               3Pdxy   3Pdyz   3Pdz2   3Pdxz   3Pdx2-y2
   1  1.702  -0.039   0.405   0.084   0.081   0.161   0.340   0.342   0.283
              0.008   0.004   0.011   0.007   0.013
   2  1.958   0.223   0.268   0.236   0.314   0.241   0.242   0.136   0.215
              0.022   0.017   0.012   0.011   0.023
   3  1.885   0.148   0.297   0.064   0.340   0.280   0.360   0.133   0.205
              0.011   0.007   0.009   0.010   0.020
   4  1.951   0.188   0.277   0.298   0.294   0.190   0.188   0.155   0.268
              0.035   0.021   0.007   0.008   0.020
   6  2.061   0.253   0.245   0.233   0.359   0.315   0.250   0.117   0.174
              0.026   0.021   0.015   0.017   0.036
   7  1.877   0.155   0.298   0.212   0.308   0.140   0.263   0.146   0.297
              0.016   0.013   0.007   0.006   0.015
   8  1.873   0.146   0.299   0.068   0.335   0.264   0.362   0.129   0.209
              0.013   0.007   0.011   0.011   0.021
   9  1.872   0.144   0.300   0.187   0.290   0.189   0.275   0.163   0.263
              0.020   0.014   0.005   0.008   0.015
  10  1.893   0.156   0.296   0.223   0.321   0.151   0.253   0.142   0.289
              0.019   0.015   0.008   0.005   0.016
  11  1.988   0.220   0.264   0.231   0.320   0.257   0.250   0.147   0.220
              0.022   0.016   0.012   0.009   0.020
  21  1.997   0.220   0.268   0.265   0.257   0.302   0.212   0.220   0.169
              0.013   0.019   0.020   0.014   0.017
  22  1.986   0.217   0.266   0.249   0.251   0.312   0.229   0.217   0.165
              0.015   0.017   0.020   0.013   0.016
  23  1.911   0.166   0.291   0.271   0.211   0.239   0.214   0.246   0.211
              0.011   0.016   0.012   0.011   0.013
  24  1.960   0.219   0.268   0.243   0.272   0.282   0.222   0.190   0.180
              0.017   0.018   0.018   0.013   0.019
  25  1.907   0.165   0.293   0.144   0.286   0.280   0.291   0.197   0.189
              0.011   0.011   0.018   0.012   0.010
  26  1.988   0.218   0.268   0.264   0.262   0.302   0.210   0.209   0.172
              0.013   0.019   0.020   0.014   0.018
  27  1.997   0.221   0.265   0.258   0.250   0.312   0.225   0.226   0.161
              0.012   0.019   0.020   0.013   0.016
  28  2.092   0.264   0.239   0.287   0.307   0.370   0.207   0.182   0.120
              0.023   0.026   0.029   0.017   0.021
  30  2.045   0.280   0.241   0.299   0.331   0.287   0.185   0.147   0.162
              0.017   0.028   0.025   0.020   0.023
  31  1.992   0.218   0.266   0.282   0.258   0.295   0.192   0.220   0.181
              0.012   0.017   0.019   0.016   0.018
  32  1.987   0.216   0.269   0.272   0.252   0.292   0.202   0.222   0.177
              0.013   0.018   0.020   0.016   0.019
  33  1.991   0.216   0.267   0.276   0.243   0.312   0.202   0.229   0.163
              0.012   0.019   0.020   0.016   0.017
  34  1.912   0.167   0.290   0.259   0.159   0.300   0.221   0.290   0.162
              0.010   0.018   0.012   0.012   0.011
  35  1.982   0.231   0.266   0.253   0.233   0.313   0.222   0.232   0.145
              0.015   0.021   0.020   0.015   0.016
  36  1.981   0.232   0.265   0.223   0.255   0.327   0.239   0.224   0.132
              0.017   0.024   0.019   0.010   0.013
  37  1.884   0.130   0.325   0.233   0.242   0.097   0.220   0.220   0.326
              0.015   0.021   0.021   0.013   0.020
  38  1.809   0.067   0.358   0.201   0.176   0.071   0.243   0.270   0.351
              0.014   0.019   0.011   0.017   0.012
  39  1.852   0.124   0.326   0.082   0.234   0.222   0.338   0.216   0.220
              0.014   0.011   0.022   0.021   0.022
  40  1.806   0.049   0.366   0.227   0.098   0.120   0.227   0.339   0.309
              0.015   0.013   0.015   0.010   0.019
  41  1.909   0.170   0.290   0.264   0.135   0.318   0.202   0.301   0.165
              0.010   0.014   0.013   0.009   0.017
  42  1.972   0.221   0.266   0.286   0.243   0.273   0.185   0.226   0.191
              0.012   0.017   0.020   0.015   0.018
  43  2.032   0.252   0.242   0.304   0.243   0.309   0.189   0.210   0.148
              0.021   0.027   0.031   0.028   0.030
  44  1.911   0.167   0.286   0.280   0.131   0.323   0.198   0.304   0.166
              0.008   0.012   0.013   0.008   0.015
  45  1.803   0.053   0.366   0.203   0.116   0.118   0.251   0.319   0.311
              0.012   0.018   0.008   0.014   0.014
  46  1.839   0.117   0.326   0.164   0.148   0.208   0.266   0.288   0.234
              0.017   0.022   0.014   0.017   0.018
  47  1.706  -0.030   0.403   0.068   0.111   0.143   0.351   0.315   0.297
              0.010   0.012   0.008   0.009   0.009
  48  1.702  -0.029   0.403   0.091   0.097   0.130   0.333   0.325   0.304
              0.007   0.010   0.007   0.012   0.012
  49  1.792   0.048   0.364   0.180   0.122   0.142   0.269   0.304   0.295
              0.015   0.017   0.011   0.013   0.013
  50  1.800   0.068   0.357   0.168   0.127   0.142   0.276   0.300   0.292
              0.017   0.017   0.011   0.013   0.012
  51  1.842   0.119   0.325   0.177   0.144   0.206   0.261   0.284   0.238
              0.019   0.022   0.014   0.017   0.017
  52  1.706  -0.028   0.401   0.108   0.082   0.135   0.318   0.341   0.301
              0.011   0.014   0.004   0.011   0.008
  53  1.702  -0.027   0.401   0.105   0.075   0.139   0.319   0.345   0.297
              0.011   0.014   0.005   0.008   0.010
  54  1.810   0.070   0.353   0.086   0.201   0.161   0.339   0.250   0.277
              0.013   0.011   0.016   0.020   0.013
  55  1.786   0.054   0.359   0.074   0.193   0.163   0.345   0.250   0.279
              0.011   0.011   0.016   0.020   0.013
  56  1.770   0.045   0.362   0.087   0.098   0.228   0.335   0.326   0.220
              0.013   0.006   0.019   0.012   0.019
  57  1.696  -0.033   0.400   0.091   0.094   0.137   0.330   0.329   0.301
              0.005   0.005   0.012   0.009   0.016
  58  1.780   0.054   0.361   0.086   0.230   0.103   0.336   0.222   0.318
              0.004   0.012   0.021   0.013   0.019
  59  1.695  -0.033   0.400   0.083   0.170   0.072   0.339   0.271   0.346
              0.003   0.007   0.011   0.013   0.012
  61  1.793   0.046   0.365   0.252   0.081   0.096   0.214   0.342   0.326
              0.014   0.011   0.016   0.008   0.021
  62  1.776   0.048   0.361   0.233   0.077   0.108   0.218   0.346   0.316
              0.014   0.012   0.016   0.008   0.020
  63  1.691  -0.034   0.401   0.133   0.074   0.110   0.301   0.344   0.315
              0.007   0.005   0.012   0.008   0.014

Species: N                   
Atom  Qatom  Qorb
               2s      2s      2py     2pz     2px     2py     2pz     2px     
               3Pdxy   3Pdyz   3Pdz2   3Pdxz   3Pdx2-y2
   5  2.391   0.293   0.310   0.286   0.429   0.593   0.247   0.114   0.076
              0.011   0.009   0.007   0.006   0.011
  29  2.386   0.285   0.311   0.610   0.231   0.427   0.082   0.262   0.133
              0.007   0.012   0.011   0.009   0.007

Species: H                   
Atom  Qatom  Qorb
               1s      1s      2Ppy    2Ppz    2Ppx    
  12  0.597   0.374   0.174   0.016   0.017   0.016
  13  0.599   0.367   0.179   0.018   0.017   0.018
  14  0.600   0.368   0.178   0.019   0.017   0.018
  15  0.627   0.414   0.157   0.024   0.017   0.014
  16  0.618   0.411   0.161   0.009   0.018   0.019
  17  0.628   0.417   0.155   0.015   0.018   0.022
  18  0.625   0.416   0.155   0.023   0.017   0.014
  19  0.626   0.417   0.155   0.016   0.020   0.019
  20  0.628   0.414   0.157   0.016   0.019   0.022
  64  0.627   0.405   0.165   0.016   0.019   0.022
  65  0.625   0.403   0.166   0.023   0.014   0.018
  66  0.626   0.401   0.169   0.016   0.020   0.020
  67  0.602   0.356   0.194   0.017   0.017   0.018
  68  0.604   0.374   0.180   0.016   0.018   0.017
  69  0.599   0.360   0.189   0.016   0.017   0.017
  70  0.608   0.375   0.182   0.017   0.017   0.017
  71  0.607   0.353   0.195   0.018   0.021   0.019
  72  0.608   0.378   0.175   0.019   0.019   0.017
  73  0.623   0.400   0.168   0.018   0.023   0.014
  74  0.630   0.405   0.166   0.019   0.024   0.017
  75  0.603   0.368   0.182   0.017   0.017   0.019
  76  0.602   0.358   0.193   0.017   0.016   0.018
  77  0.614   0.368   0.188   0.018   0.021   0.019
  78  0.607   0.385   0.169   0.018   0.018   0.016
  79  0.610   0.388   0.167   0.020   0.018   0.017
  80  0.604   0.383   0.170   0.016   0.018   0.017
  81  0.606   0.384   0.170   0.016   0.018   0.018
  82  0.602   0.382   0.170   0.016   0.018   0.016
  83  0.605   0.386   0.168   0.018   0.016   0.017
  84  0.603   0.363   0.187   0.018   0.018   0.017
  85  0.603   0.370   0.181   0.016   0.017   0.017
  86  0.606   0.378   0.177   0.016   0.019   0.017
  87  0.608   0.376   0.179   0.016   0.019   0.017
  88  0.610   0.371   0.185   0.018   0.018   0.018
  89  0.607   0.386   0.168   0.018   0.016   0.018
  90  0.602   0.376   0.175   0.017   0.017   0.017
  91  0.602   0.381   0.171   0.017   0.016   0.016
  92  0.606   0.383   0.170   0.018   0.017   0.017
  93  0.602   0.381   0.171   0.018   0.016   0.016
  94  0.604   0.384   0.169   0.016   0.018   0.017
  95  0.614   0.374   0.182   0.021   0.018   0.020
  96  0.605   0.371   0.181   0.018   0.016   0.018
  97  0.610   0.382   0.175   0.017   0.017   0.018
  98  0.604   0.369   0.182   0.018   0.017   0.019
  99  0.607   0.381   0.175   0.018   0.017   0.017
 100  0.607   0.377   0.178   0.017   0.018   0.017
 101  0.608   0.388   0.168   0.017   0.019   0.017
 102  0.605   0.387   0.167   0.018   0.017   0.016
 103  0.602   0.375   0.176   0.017   0.017   0.017
 104  0.607   0.377   0.178   0.017   0.017   0.018
 105  0.606   0.372   0.181   0.018   0.017   0.017
 106  0.606   0.385   0.169   0.018   0.018   0.016
 107  0.602   0.383   0.169   0.018   0.016   0.016
 108  0.604   0.379   0.173   0.017   0.017   0.018
[...]
    5.3134    5.3928    5.4041    5.5966    5.6547    5.7238    5.7970    5.8204    5.8603    5.9252
    5.9583    5.9669    6.0833    6.1074    6.1201    6.1941    6.2782    6.4563    6.5045    6.5415
    6.5565    6.5673    6.7210    6.8185    6.9145    7.0215    7.0329    7.0863    7.0932    7.2666
    7.2892    7.3712    7.4691    7.5343    7.6136    7.6712    7.7468    7.8388    7.8924    7.9305
    7.9349    7.9639    8.0578    8.1237    8.1544    8.1972    8.2133    8.2579    8.3254    8.3922
    8.4355    8.4822    8.5394    8.5621    8.6044    8.6474    8.6485    8.6734    8.7470    8.7961
    8.8263    8.8614    8.8871    8.9930    9.0091    9.0574    9.1792    9.2261    9.3319    9.3831
    9.4115    9.5139    9.5481    9.5893    9.7237    9.7394    9.7623    9.8006    9.9438    9.9514
   10.0286   10.1166   10.1921   10.2173   10.2674   10.3751   10.4758   10.4775   10.6207   10.6431
   10.7004   10.8390   10.8515   10.8922   10.9300   10.9768   11.0253   11.1816   11.2014   11.2435
   11.3545   11.4291   11.4538   11.5039   11.5613   11.5962   11.6229   11.6615   11.7500   11.7736
   11.7977   11.8665   12.0542   12.0916   12.0927   12.1369   12.2600   12.3173   12.4044   12.4237
   12.5156   12.5460   12.5763   12.6152   12.6315   12.7743   12.8593   12.8605   12.9575   13.0068
   13.0579   13.1442   13.1833   13.2507   13.2660   13.4024   13.5008   13.6559   13.6760   13.7053
   13.7786   13.9619   14.0119   14.0166   14.0385   14.2133   14.3655   14.4355   14.5021   14.5319
   14.5697   14.6763   14.7132   14.7397   14.8047   14.8703   14.9664   15.0693   15.1827   15.2308
   15.2572   15.3650   15.4045   15.4505   15.5889   15.6821   15.7135   15.7298   15.7339   15.8290
   15.8608   15.9413   16.0982   16.1578   16.2458   16.3336   16.3462   16.4034   16.5183   16.5750
   16.6940   16.7417   16.7423   16.8908   16.9541   16.9756   17.0438   17.0977   17.1943   17.2438
   17.2925   17.4394   17.4614   17.5000   17.5560   17.6326   17.6857   17.6871   17.7525   17.8316
   17.8596   17.9045   17.9302   17.9372   18.0291   18.0867   18.1289   18.1428   18.2093   18.2175
   18.2690   18.3700   18.3949   18.4031   18.4573   18.4908   18.4952   18.5076   18.5942   18.6453
   18.6883   18.7366   18.7513   18.7773   18.8455   18.8674   18.9908   19.0055   19.0826   19.1049
   19.1218   19.1518   19.2232   19.2631   19.3013   19.3840   19.3995   19.4008   19.5108   19.5231
   19.6219   19.6592   19.7110   19.7373   19.7874   19.8069   19.8664   19.9703   20.0384   20.0840
   20.1153   20.1738   20.1841   20.3057   20.3776   20.3987   20.4267   20.5254   20.5604   20.5624
   20.6515   20.7262   20.7450   20.8434   20.9545   20.9687   21.0711   21.1138   21.1843   21.2167
   21.2988   21.3992   21.4522   21.5057   21.5324   21.5361   21.6248   21.6348   21.6568   21.6817
   21.7453   21.8915   21.9287   21.9739   22.0381   22.1196   22.1626   22.1805   22.2068   22.3119
   22.4625   22.5135   22.5264   22.6225   22.6996   22.8177   22.8588   22.9545   22.9722   23.0654
   23.1279   23.1752   23.2044   23.4242   23.5478   23.5650   23.6802   23.7210   23.7701   23.9358
   24.0025   24.0410   24.0968   24.2569   24.3664   24.5533   24.5642   24.6252   24.7890   24.7973
   24.9589   25.0996   25.1066   25.1524   25.3005   25.3694   25.4395   25.4436   25.6292   25.6654
   25.7153   25.8842   25.9330   26.0359   26.1228   26.2206   26.3360   26.5041   26.6792   26.7528
   26.8740   26.9963   27.1341   27.2117   27.3570   27.4963   27.5691   27.6963   27.8349   27.9488
   28.0761   28.2279   28.2373   28.3135   28.5271   28.5815   28.7113   28.9090   29.0494   29.1565
   29.3239   29.3455   29.6243   29.6670   29.9761   30.1122   30.2684   30.3323   30.5115   30.5220
   30.6986   30.7556   30.8143   30.9568   31.0896   31.2020   31.3568   31.4229   31.6624   31.8757
   32.0352   32.1270   32.3543   32.4827   32.7764   32.8403   32.8562   32.9553   33.0150   33.0860
   33.2724   33.4498   33.5681   33.5738   33.7247   34.0613   34.0964   34.1146   34.1888   34.3739
   34.4619   34.6388   34.6395   34.7249   34.8698   34.9454   35.0408   35.1346   35.3774   35.4413
   35.6387   35.8914   35.9675   36.0147   36.1897   36.2317   36.4143   36.6028   36.7959   36.9193
   37.0419   37.1115   37.2347   37.2853   37.4602   37.6251   37.7311   37.7754   37.9476   38.1190
   38.1726   38.2515   38.4628   38.5380   38.7693   38.8686   38.8698   38.9485   38.9937   39.3743
   39.4471   39.4807   39.5272   39.5478   39.6691   39.8048   39.8267   39.8785   40.1397   40.2604
   40.3425   40.4652   40.5524   40.6584   40.8056   40.8355   41.0011   41.0511   41.0643   41.1919
   41.2909   41.4249   41.5053   41.6161   41.7335   41.7606   41.8401   42.0214   42.1598   42.2947
   42.3194   42.4092   42.4320   42.5203   42.5676   42.7634   42.7822   42.8040   42.8449   43.0375
   43.0611   43.2141   43.2276   43.3595   43.3923   43.7370   43.8648   43.9932   44.1295   44.2280
   44.3335   44.3978   44.5574   44.6260   44.8057   45.1306   45.1534   45.2529   45.2793   45.3722
   45.3925   45.5128   45.5851   45.7578   45.8549   45.9465   45.9932   46.1378   46.1688   46.3651
   46.4798   46.6229   46.7385   46.9484   47.0059   47.1360   47.1521   47.4217   47.5337   47.6476
   47.7390   47.9461   47.9609   48.1575   48.2302   48.2972   48.3026   48.3590   48.4838   48.5572
   48.7024   48.7305   48.9037   49.0157   49.0735   49.1032   49.1787   49.3581   49.5412   49.6822
   49.6966   49.9333   49.9960   50.0804   50.1126   50.3131   50.3458   50.3885   50.5114   50.6596
   50.6958   50.8085   50.8394   50.9576   51.1003   51.1962   51.2575   51.3508   51.5356   51.5946
   51.6090   51.7778   52.0123   52.1023   52.1718   52.2863   52.3710   52.4321   52.5183   52.9293
   53.0374   53.1349   53.3955   53.4665   53.4800   53.7168   53.8056   53.8900   53.9949   54.0927
   54.2783   54.4197   54.4505   54.5911   54.7164   54.8821   54.9462   54.9759   55.2770   55.3309
   55.3696   55.6151   55.8859   55.9833   56.1504   56.2930   56.4446   56.5777   56.8709   57.0300
   57.1170   57.2411   57.3479   57.3545   57.6284   57.9101   57.9906   58.0608   58.1387   58.3532
   58.4377   58.4558   58.5184   58.7204   58.9350   58.9390   59.2339   59.5012   59.7549   59.8213
   59.9144   60.0935   60.1125   60.2451   60.4799   60.5389   60.6382   60.8008   61.0683   61.3249
   61.4050   61.5306   61.5709   61.8426   62.0232   62.2585   62.3310   62.3919   62.4089   62.5733
   62.6858   62.8746   63.0528   63.2071   63.3414   63.4945   63.6663   63.8140   63.9386   64.1640
   64.2625   64.3107   64.3377   64.5053   64.5152   64.6264   64.7300   64.7771   64.8840   64.9348
   65.1274   65.1841   65.4769   65.7548   65.9514   66.1223   66.1693   66.4303   66.8949   67.0085
   67.2715   67.3793   67.4560   67.6006   67.8068   68.0730   68.2283   68.2415   68.4621   68.5550
   68.7824   68.8982   68.9611   69.0777   69.4224   69.5637   69.8392   69.9096   70.0011   70.1850
   70.3401   70.4159   70.5110   70.5863   70.8548   71.1334   71.2171   71.4485   71.6062   71.8516
   72.0603   72.2109   72.3655   72.7472   72.9243   73.0637   73.0737   73.2899   73.3891   73.7382
   73.9800   74.2025   74.3282   74.4275   74.5840   74.6667   74.9458   75.0086   75.1391   75.4001
   75.6706   76.0625   76.1560   76.4814   76.9991   77.3291   77.4165   77.5805   77.9586   78.5249
   79.0155   79.1455   79.2011   79.3788   79.6769   80.2174   80.6330   80.7819   81.1117   81.8255
   81.8838   82.0676   82.5353   83.1021   83.4014   84.0590   85.4172   86.0907   86.3402   87.2632
   87.4324   87.4546   88.5156   88.6980   89.5202   89.6660   89.8346   90.7196   91.2382   91.9924
   92.9941   93.4600   94.3562   94.9554   95.5556   97.9046   98.1909   99.1831   99.5888  100.4343
  102.3570  102.9090  104.9058  105.0735  105.7781  106.1557  107.9569  108.5580  108.6484  110.2308
  112.4299  112.6507  114.7392  116.9200  117.8240  118.5232  123.4949  124.9199  128.3889  128.5414
  137.6219  139.4606

siesta: PDOS info
siesta: E1 -- E2, sigma [eV], nhist:  -10.000 --   10.000    0.200 500

siesta: Program's energy decomposition (eV):
siesta: Ebs     =     -3344.606911
siesta: Eions   =     15634.959410
siesta: Ena     =      3260.823431
siesta: Ekin    =      7128.062385
siesta: Enl     =     -1073.738515
siesta: Eso     =         0.000000
siesta: Edftu   =         0.000000
siesta: DEna    =      -259.902459
siesta: DUscf   =        31.202550
siesta: DUext   =         0.000000
siesta: Exc     =     -3666.579838
siesta: eta*DQ  =         0.000000
siesta: Emadel  =         0.000000
siesta: Emeta   =         0.000000
siesta: Emolmec =         0.000000
siesta: Ekinion =         3.087327
siesta: Eharris =    -10212.004528
siesta: Etot    =    -10212.004528
siesta: FreeEng =    -10212.004528

siesta: Final energy (eV):
siesta:  Band Struct. =   -3344.606911
siesta:       Kinetic =    7128.062385
siesta:       Hartree =   48222.728541
siesta:       Edftu   =       0.000000
siesta:       Eso     =       0.000000
siesta:    Ext. field =       0.000000
siesta:   Exch.-corr. =   -3666.579838
siesta:  Ion-electron = -102649.536962
siesta:       Ion-ion =   40750.234019
siesta:       Ekinion =       3.087327
siesta:         Total =  -10212.004528
siesta:         Fermi =      -3.336736

siesta: Atomic forces (eV/Ang):
siesta:      1   -0.156529   -0.129053    1.095550
siesta:      2   -0.051810   -0.198220    0.792699
siesta:      3    0.739770    1.829163    0.573534
siesta:      4   -1.094674   -1.531977   -0.723909
siesta:      5    0.537425    0.721543    1.845549
siesta:      6    0.692303   -0.236787   -1.863750
siesta:      7    0.501089   -2.138924   -0.724693
siesta:      8   -0.451146    0.597905    1.326140
siesta:      9    1.414603    0.258899   -0.743605
siesta:     10    0.058209   -0.575438   -0.724335
siesta:     11    0.268883   -0.885641    0.182571
siesta:     12   -0.202124    0.182045   -0.149120
siesta:     13   -0.834551    0.062264   -0.649937
siesta:     14    0.843027    0.307873   -0.649557
siesta:     15    0.133671   -0.392472   -0.219419
siesta:     16    0.532017   -0.060955   -0.173367
siesta:     17    0.230074    0.396424    0.103147
siesta:     18   -0.156071    1.244291   -0.110016
siesta:     19   -1.196803    0.934543    0.959805
siesta:     20   -1.122867   -0.709471    0.574589
siesta:     21   -0.405896   -1.291343    0.034909
siesta:     22   -0.298328    0.886819   -0.328763
siesta:     23   -0.336793    0.711936   -0.462399
siesta:     24    1.559334   -1.026074    0.371130
siesta:     25   -0.759512   -1.564030   -0.134498
siesta:     26    0.340908    1.993423    0.573898
siesta:     27    0.980756    0.503794    0.607774
siesta:     28   -0.126404   -0.434618    1.033039
siesta:     29    1.205019   -0.116316    0.186213
siesta:     30    0.655089   -0.959556   -0.643506
siesta:     31   -1.345864   -1.593522   -0.725033
siesta:     32   -0.955442    0.869746   -1.283877
siesta:     33    0.071155   -1.529883   -1.434444
siesta:     34    0.807122    1.017654    1.298988
siesta:     35    0.214738   -0.591297    0.422264
siesta:     36   -0.298660    0.854948   -0.202969
siesta:     37    2.130828   -0.663863    0.035439
siesta:     38   -1.392010   -0.366280   -0.651672
siesta:     39    0.334077    0.077606   -0.748778
siesta:     40   -0.425082   -0.387971    0.867828
siesta:     41    0.753843    1.105411    1.170742
siesta:     42   -0.061791    1.419937    1.341879
siesta:     43   -0.661626   -1.075327   -0.881361
siesta:     44    1.036043   -0.311160    0.079676
siesta:     45   -0.978099    1.254321   -0.767621
siesta:     46    0.246168    0.165648    0.365778
siesta:     47   -1.336750    1.273657   -0.889305
siesta:     48    0.245441   -1.760738   -0.608805
siesta:     49   -1.454266    1.363872    0.891619
siesta:     50    0.430984   -0.676688    1.252479
siesta:     51   -0.083424    0.407380    0.028246
siesta:     52    1.153912    1.668187    1.927863
siesta:     53    0.327532    0.107626    0.491318
siesta:     54   -1.257046    0.388226   -0.378247
siesta:     55   -1.521255   -2.110919   -1.980139
siesta:     56   -0.633728    0.010786    0.715429
siesta:     57   -1.414397   -0.101682    0.292538
siesta:     58    0.392675   -1.097639   -0.772000
siesta:     59    0.394331    0.827883   -0.542352
siesta:     60   -0.560279    3.626571    0.406595
siesta:     61    0.037048   -0.237352   -0.933025
siesta:     62   -0.338123   -0.482432    0.753433
siesta:     63   -0.328267   -0.022339   -1.096915
siesta:     64   -0.355408   -0.470646   -0.141892
siesta:     65    0.404390    0.082263   -0.052388
siesta:     66   -0.669092    0.135867   -0.006608
siesta:     67   -0.297093    0.318850   -0.244655
siesta:     68    0.471304    0.389288    0.384112
siesta:     69    0.432857    0.503825   -0.167372
siesta:     70   -0.152389    0.463617    0.105082
siesta:     71   -0.004029    0.848349   -0.603743
siesta:     72   -0.209296   -0.069138   -0.164779
siesta:     73   -0.435410   -0.129164   -0.940753
siesta:     74    0.035600   -0.127800    0.370371
siesta:     75   -0.464142   -0.402646    0.446998
siesta:     76   -0.061272   -0.346042    0.024084
siesta:     77    0.212599   -0.017458   -0.159750
siesta:     78    0.048068   -0.114630    0.210533
siesta:     79    1.111015   -0.418655    0.524778
siesta:     80    0.789929   -0.280669   -0.165646
siesta:     81    0.602775    0.649955    0.476208
siesta:     82    0.534283   -0.045317   -0.342732
siesta:     83   -1.373921    0.200876    1.142693
siesta:     84    1.114064   -0.561525   -0.188857
siesta:     85   -0.164273    0.408805   -0.757814
siesta:     86    0.000975   -0.491597   -0.463278
siesta:     87   -0.056189    0.533780   -0.284235
siesta:     88   -0.061619    0.603674   -0.661381
siesta:     89   -0.069580   -0.114486   -0.195084
siesta:     90    0.112232   -0.051158   -0.202332
siesta:     91   -0.673229   -1.298231   -1.422524
siesta:     92    0.065858   -0.490126   -0.096031
siesta:     93   -0.553894   -0.337914    0.323601
siesta:     94   -0.421871    0.140729   -0.252653
siesta:     95    0.583213   -1.047281   -0.222163
siesta:     96    0.974276    0.538200    0.979339
siesta:     97    0.003874    0.950998    0.028329
siesta:     98    1.106250    0.898885    1.520166
siesta:     99   -0.479103    0.362757   -0.680549
siesta:    100    0.627313   -0.485855    0.127300
siesta:    101    0.640183   -0.380167    0.244373
siesta:    102    0.850248    0.148808   -0.298255
siesta:    103    0.257943    0.375024    0.302243
siesta:    104    0.072462    0.076122    0.143473
siesta:    105   -1.726211    0.305268   -0.091527
siesta:    106    0.296321    0.133865    0.040354
siesta:    107   -0.616938   -0.311959    0.870606
siesta:    108    0.224952   -0.391441    0.015364
siesta:    109    0.502151   -0.265071    0.388607
siesta:    110    1.104355    0.540816    0.122928
siesta:    111    0.404584    0.039192    0.334321
siesta:    112   -1.071105   -0.198627   -0.506476
siesta:    113    0.344243   -0.100235   -0.101121
siesta:    114   -0.247274    0.072794    0.937264
siesta:    115   -0.094994   -0.613759   -0.042034
siesta:    116    0.800858    0.113684    0.381740
siesta: ----------------------------------------
siesta:    Tot    1.499299    2.085113    1.393475

siesta: Stress tensor (static) (eV/Ang**3):
siesta:    -0.000697   -0.000005    0.000075
siesta:    -0.000005   -0.000362   -0.000000
siesta:     0.000075   -0.000000   -0.000067

siesta: Cell volume =      27239.043776 Ang**3

siesta: Pressure (static):
siesta:                Solid            Molecule  Units
siesta:           0.00000409         -0.00000111  Ry/Bohr**3
siesta:           0.00037535         -0.00010147  eV/Ang**3
siesta:           0.60138705         -0.16258124  kBar
(Free)E+ p_basis*V_orbitals  =      -10184.782891
(Free)Eharris+ p_basis*V_orbitals  =      -10184.782892
     spin moment: S , {S} =    0.00000       0.0       0.0   0.00000

siesta: Electric dipole (a.u.)  =   -5.038414   13.778928    0.517333
siesta: Electric dipole (Debye) =  -12.806379   35.022565    1.314931

cite: Please see "siesta.bib" for an exhaustive BiBTeX file.
cite: This calculation has made use of the following articles.
cite: Articles are encouraged to be cited in a published work.
        Primary SIESTA paper
          DOI: www.doi.org/10.1088/0953-8984/14/11/302


timer: Elapsed wall time (sec) =    4073.420
timer: CPU execution times (sec):

Routine            Calls   Time/call    Tot.time        %
siesta                 1    4069.613    4069.613   100.00
Setup                  1       1.242       1.242     0.03
bands                  3     178.211     534.633    13.14
KSV_init               1       0.000       0.000     0.00
IterGeom              10     318.657    3186.567    78.30
state_init            10       1.997      19.972     0.49
hsparse               10       0.104       1.041     0.03
overlap               10       1.728      17.279     0.42
Setup_H0              10      24.321     243.208     5.98
naefs                 20       0.004       0.079     0.00
MolMec                20       0.000       0.000     0.00
kinefsm               20       0.989      19.774     0.49
nlefsm                20       6.578     131.554     3.23
DHSCF_Init            10      11.483     114.833     2.82
DHSCF1                10       0.097       0.966     0.02
INITMESH              10       0.000       0.000     0.00
DHSCF2                10      11.386     113.865     2.80
REMESH                10       1.281      12.809     0.31
REORD                638       0.036      23.078     0.57
PHION                 10       6.832      68.324     1.68
COMM_BSC             958       0.026      24.628     0.61
POISON               125       2.076     259.490     6.38
fft                  250       0.825     206.185     5.07
IterSCF               94      28.249    2655.433    65.25
setup_H              104      10.117    1052.199    25.86
DHSCF                115      11.230    1291.438    31.73
DHSCF3               115      10.019    1152.143    28.31
rhoofd               115       2.796     321.531     7.90
XC                   115       1.605     184.555     4.53
GXC-CellXC           115       1.237     142.199     3.49
cellXC               115       1.236     142.196     3.49
vmat                 114       2.361     269.147     6.61
compute_dm            94      17.002    1598.170    39.27
diagon                94      16.994    1597.413    39.25
r-eigvec             188       7.675    1442.884    35.46
r-buildHS            188       0.008       1.510     0.04
rdiag                190       7.610    1445.875    35.53
rdiag1               190       0.245      46.478     1.14
rdiag2               190       0.422      80.180     1.97
rdiag3               190       4.562     866.751    21.30
rdiag4               190       2.370     450.216    11.06
r-buildD              94       1.601     150.523     3.70
MIXER                 84       0.023       1.943     0.05
PostSCF               10      26.756     267.560     6.57
DHSCF4                10      13.929     139.293     3.42
dfscf                 10      12.266     122.665     3.01
overfsm               10       0.314       3.138     0.08
state_analysis        10       0.023       0.231     0.01
siesta_move           10       0.009       0.093     0.00
Analysis               1     881.799     881.799    21.67
c-eigval             152       3.516     534.438    13.13
c-buildHS            152       0.026       3.958     0.10
cdiag                152       3.490     530.478    13.04
cdiag1               152       0.651      98.917     2.43
cdiag2               152       1.117     169.835     4.17
cdiag3               152       1.722     261.719     6.43
pdos                   1     344.451     344.451     8.46
optical                1       0.000       0.000     0.00
  

>> End of run:  13-DEC-2020  22:40:04
Job completed
