Siesta Version  : master-post-4.1-266
Architecture    : unknown
Compiler version: GNU Fortran (Ubuntu 9.3.0-17ubuntu1~20.04) 9.3.0
Compiler flags  : gfortran -O2 -fPIC -ftree-vectorize
PP flags        : -DFC_HAVE_ABORT -DSIESTA__DIAG_2STAGE -DSIESTA__MRRR
Libraries       : libsiestaLAPACK.a libsiestaBLAS.a
Directory       : /home/colinw/siesta/mixture_simulations/asphaltene2highmwaliphatic2laPAH2
SERIAL version

* Running in serial mode
>> Start of run:  14-DEC-2020  14:58:05

                           ***********************       
                           *  WELCOME TO SIESTA  *       
                           ***********************       

reinit: Reading from standard input
reinit: Dumped input in INPUT_TMP.04853
************************** Dump of input data file ****************************
NumberOfAtoms 205
SpinPolarized yes
#FixSpin .true.
#TotalSpin
NumberOfSpecies 4
MD.TypeOfRun  nose
MD.FinalTimeStep 10
MD.LengthTimeStep 1.0  fs
MD.InitialTemperature 300 K
MD.TargetTemperature  300  K
%block ChemicalSpeciesLabel
1  6  C
2  7  N
3  1  H
4  8  O
%endblock ChemicalSpeciesLabel
PAO.BasisSize dzp
 PAO.EnergyShift 0.02 Ry
MeshCutoff          100 Ry
MaxSCFIterations    100
DM.NumberPulay       3
DM.Tolerance         1e-3
WriteDenchar	.true.
%block ProjectedDensityOfStates
-10.0 10.0 0.200 500 eV
%endblock ProjectedDensityOfStates
NetCharge 0.00
%block BandLines
1  1.000  1.000 1.000  L
20 0.00   0.00   0.00  \Gamma
25 2.00   0.000  0.00  X
30 2.00   2.00   2.00  \Gamma
%endblock BandLines
LongOutput .true.
WriteCoorXmol .true.
LatticeConstant 1 Ang
%block LatticeVectors
  38.018604 0.0 0.0
  0.0 32.442533 0.0
  0.0 0.0 23.863236
%endblock LatticeVectors
#UseSaveData .true.
%block kgrid_Monkhorst_Pack
1 0 0 0.0
 0 1 0 0.0
 0 0 1 0.0
%endblock kgrid_Monkhorst_Pack
WriteMDXmol .true.
AtomicCoordinatesFormat Ang
%block AtomicCoordinatesAndAtomicSpecies
24.694839  20.041090 9.719635  1
23.599875  20.009973 10.624768  1
22.912580  21.338417 10.924645  1
23.303911  22.577901 10.056539  1
24.720387  22.493311 9.498242  1
25.264988  21.243503 9.240114  1
25.235172  18.815972 9.285995  1
24.776965  17.599414 9.795804  1
23.887017  17.558170 10.893613  1
23.225819  18.772754 11.265294  1
25.216226  16.382762 9.201209  1
24.852666  15.154670 9.753845  1
24.278899  15.223833 11.046562  1
23.741361  16.380687 11.538788  2
26.066731  16.413294 8.069433  1
26.322952  15.255323 7.297616  1
25.639154  14.058421 7.644258  1
25.054337  13.990689 8.924667  1
26.292843  18.810326 8.337765  1
26.688126  17.603156 7.719710  1
26.441184  21.226990 8.446998  1
26.947958  19.987123 8.012188  1
25.281710  23.655579 9.052112  2
26.433233  23.645926 8.328110  1
27.038114  22.435310 8.021309  1
25.294209  12.829523 6.957896  1
24.760677  11.980471 7.907540  1
24.726522  12.665708 9.095976  2
25.296495  12.380256 5.610296  1
24.759723  11.109196 5.238936  1
24.278278  10.255269 6.262781  1
24.315131  10.691323 7.609658  1
27.721631  17.599480 6.746115  1
27.984608  16.437365 6.003211  1
27.247470  15.289348 6.241054  1
28.121199  19.910912 7.224995  1
28.478180  18.736691 6.562641  1
28.253933  22.362146 7.133336  1
29.038728  21.078397 7.204068  1
22.093089  18.771241 12.339646  1
21.236973  17.491682 12.399117  1
22.602908  19.179432 13.750380  1
21.558743  19.196093 14.888900  1
20.380355  20.135464 14.664910  1
24.316571  14.050813 12.008120  1
25.026042  14.371385 13.340999  1
25.068446  13.182568 14.331652  1
25.802190  11.968229 13.749885  1
25.955678  10.756966 14.685369  1
26.748916  9.604684 14.003856  1
28.196715  10.027211 13.670614  1
29.021094  8.939051 12.998394  1
26.721360  8.335295 14.865049  1
23.621349  8.895311 6.060408  1
24.592666  7.710540 6.150083  1
23.880233  6.363707 6.086563  1
24.614581  10.847012 3.736043  1
25.409209  9.669582 3.149147  1
25.311898  9.506666 1.608727  1
26.101784  8.262156 1.155199  1
23.864496  9.448106 1.080442  1
23.016583  8.340406 1.691338  1
26.971465  25.032364 7.969094  1
27.671474  25.227885 6.607566  1
28.308309  26.599831 6.350184  1
29.079223  26.548042 5.020197  1
27.276146  27.711657 6.349181  1
22.964439  23.874570 10.844567  1
23.242595  25.197242 10.132249  1
23.083818  21.570350 11.980210  3
21.829484  21.202609 10.790109  3
22.653116  22.563440 9.168416  3
24.326850  12.271400 9.934218  3
25.615434  13.074886 4.835875  3
23.924310  10.062018 8.404870  3
28.754167  16.438947 5.245473  3
27.462946  14.397377 5.656121  3
29.354571  18.728460 5.924889  3
27.916828  22.517066 6.098353  3
28.977476  23.112906 7.444524  3
29.631761  21.068329 8.128133  3
29.742219  21.038859 6.364636  3
21.375363  19.536973 12.023575  3
21.773314  16.643843 12.834136  3
20.873459  17.211902 11.405202  3
20.350085  17.639347 13.024977  3
23.054787  20.176866 13.701599  3
23.410119  18.500446 14.052232  3
22.060397  19.493834 15.819251  3
21.179022  18.184320 15.069716  3
20.710717  21.174308 14.570976  3
19.687750  20.081463 15.513539  3
19.815843  19.867208 13.768462  3
24.878820  13.234257 11.558350  3
23.295707  13.699126 12.186912  3
24.532666  15.218706 13.831222  3
26.056094  14.695200 13.133105  3
24.047528  12.906303 14.616333  3
25.577753  13.516127 15.245705  3
26.783869  12.314897 13.416615  3
25.260178  11.614138 12.867996  3
24.953762  10.390146 14.944937  3
26.441730  11.045190 15.625584  3
26.239993  9.363015 13.061165  3
28.708779  10.359685 14.581442  3
28.187338  10.878939 12.983153  3
29.187507  8.089149 13.665136  3
30.003612  9.332957 12.719752  3
28.527015  8.582932 12.088916  3
27.290004  8.465070 15.791596  3
27.149058  7.483211 14.324174  3
25.695790  8.054583 15.123829  3
23.053712  8.876955 5.125426  3
22.861627  8.768251 6.848269  3
25.184274  7.757834 7.072187  3
25.311153  7.748983 5.329705  3
23.194549  6.224384 6.929124  3
24.615644  5.551960 6.117455  3
23.310988  6.262579 5.157102  3
24.916483  11.749534 3.184752  3
23.544814  10.734184 3.526551  3
25.046602  8.745871 3.595938  3
26.466921  9.764958 3.425898  3
25.788348  10.374706 1.133446  3
25.945346  7.410082 1.826068  3
27.176196  8.473320 1.138888  3
25.816626  7.944750 0.144982  3
23.887861  9.315395 -0.009025  3
23.369413  10.412555 1.245737  3
23.592525  7.428732 1.870863  3
22.188848  8.086993 1.021866  3
22.584883  8.662503 2.643518  3
27.647847  25.338689 8.776465  3
26.120109  25.725180 8.000565  3
26.982309  24.951806 5.800516  3
28.528619  24.576999 6.505895  3
29.042741  26.805773 7.140347  3
28.471692  26.114538 4.217906  3
29.978055  25.926294 5.122211  3
29.405579  27.543252 4.704629  3
26.407069  27.442689 5.741690  3
27.701949  28.639522 5.956226  3
26.936551  27.909375 7.370593  3
23.498117  23.881308 11.802430  3
21.892284  23.853814 11.082168  3
24.305590  25.455234 10.172878  3
22.722714  26.021049 10.629920  3
22.921442  25.169042 9.086313  3
23.906140  27.320523 0.148131  1
23.621023  28.269295 0.011939  1
22.648681  28.496064 -0.043985  1
21.961457  27.774062 0.036284  1
20.989115  28.000831 -0.019639  1
20.301893  27.278838 0.060628  1
19.329552  27.505608 0.004704  1
18.642327  26.783605 0.084973  1
17.669986  27.010375 0.029050  1
16.982761  26.288372 0.109318  1
16.010420  26.515141 0.053395  1
15.323197  25.793149 0.133662  1
14.350856  26.019918 0.077739  1
13.663631  25.297915 0.158007  1
12.691290  25.524685 0.102084  1
12.004068  24.802692 0.182351  1
11.031726  25.029461 0.126428  1
10.344502  24.307459 0.206696  1
9.372160  24.534228 0.150773  1
8.684938  23.812235 0.231040  1
7.712596  24.039005 0.175117  1
7.025372  23.317002 0.255385  1
6.053030  23.543772 0.199462  4
7.310492  22.368240 0.391576  1
6.623267  21.646238 0.471844  1
5.650925  21.873007 0.415921  1
4.963703  21.151014 0.496188  1
3.991362  21.377783 0.440265  1
3.304137  20.655781 0.520533  1
2.331796  20.882550 0.464610  1
1.644574  20.160558 0.544877  1
0.672232  20.387327 0.488954  1
-0.014992  19.665324 0.569222  4
28.521648  28.996655 0.751754  1
27.166584  28.606044 1.249199  1
26.146296  29.491116 1.087595  2
24.907743  29.174475 1.523796  1
24.568688  27.984039 2.145053  1
25.602333  27.054119 2.323763  1
25.676357  25.745984 2.901238  1
24.738853  24.887826 3.512596  1
25.155017  23.636767 3.983016  1
26.482169  23.234823 3.852381  1
27.430423  24.066430 3.250080  1
26.996306  25.313696 2.785983  1
27.696225  26.319274 2.163686  2
28.681610  26.278170 1.949685  3
26.878200  27.386428 1.871608  1
28.502236  29.994493 0.302847  3
28.863475  28.285020 -0.006009  3
29.237700  29.005482 1.579223  3
24.155549  29.940048 1.353147  3
23.555628  27.788684 2.472916  3
23.701893  25.191851 3.619205  3
24.433840  22.973750 4.454666  3
26.786468  22.258925 4.224137  3
28.463450  23.749682 3.150621  3
 %endblock AtomicCoordinatesAndAtomicSpecies
************************** End of input data file *****************************

reinit: -----------------------------------------------------------------------
reinit: System Name: 
reinit: -----------------------------------------------------------------------
reinit: System Label: siesta
reinit: -----------------------------------------------------------------------

initatom: Reading input for the pseudopotentials and atomic orbitals ----------
Species number:   1 Atomic number:    6 Label: C
Species number:   2 Atomic number:    7 Label: N
Species number:   3 Atomic number:    1 Label: H
Species number:   4 Atomic number:    8 Label: O

Ground state valence configuration:   2s02  2p02
Reading pseudopotential information in formatted form from C.psf

Valence configuration for pseudopotential generation:
2s( 2.00) rc: 1.54
2p( 2.00) rc: 1.54
3d( 0.00) rc: 1.54
4f( 0.00) rc: 1.54
Ground state valence configuration:   2s02  2p03
Reading pseudopotential information in formatted form from N.psf

Valence configuration for pseudopotential generation:
2s( 2.00) rc: 1.48
2p( 3.00) rc: 1.48
3d( 0.00) rc: 1.48
4f( 0.00) rc: 1.48
Ground state valence configuration:   1s01
Reading pseudopotential information in formatted form from H.psf

Valence configuration for pseudopotential generation:
1s( 1.00) rc: 1.31
2p( 0.00) rc: 1.31
3d( 0.00) rc: 0.37
4f( 0.00) rc: 1.31
Ground state valence configuration:   2s02  2p04
Reading pseudopotential information in formatted form from O.psf

Valence configuration for pseudopotential generation:
2s( 2.00) rc: 1.47
2p( 4.00) rc: 1.47
3d( 0.00) rc: 1.47
4f( 0.00) rc: 1.47
For C, standard SIESTA heuristics set lmxkb to 3
 (one more than the basis l, including polarization orbitals).
Use PS.lmax or PS.KBprojectors blocks to override.
For N, standard SIESTA heuristics set lmxkb to 3
 (one more than the basis l, including polarization orbitals).
Use PS.lmax or PS.KBprojectors blocks to override.
For H, standard SIESTA heuristics set lmxkb to 2
 (one more than the basis l, including polarization orbitals).
Use PS.lmax or PS.KBprojectors blocks to override.
For O, standard SIESTA heuristics set lmxkb to 3
 (one more than the basis l, including polarization orbitals).
Use PS.lmax or PS.KBprojectors blocks to override.

<basis_specs>
===============================================================================
C                    Z=   6    Mass=  12.010        Charge= 0.17977+309
Lmxo=1 Lmxkb= 3    BasisType=split      Semic=F
L=0  Nsemic=0  Cnfigmx=2
          i=1  nzeta=2  polorb=0  (2s)
            splnorm:   0.15000    
               vcte:    0.0000    
               rinn:    0.0000    
               qcoe:    0.0000    
               qyuk:    0.0000    
               qwid:   0.10000E-01
                rcs:    0.0000      0.0000    
            lambdas:    1.0000      1.0000    
L=1  Nsemic=0  Cnfigmx=2
          i=1  nzeta=2  polorb=1  (2p)
            splnorm:   0.15000    
               vcte:    0.0000    
               rinn:    0.0000    
               qcoe:    0.0000    
               qyuk:    0.0000    
               qwid:   0.10000E-01
                rcs:    0.0000      0.0000    
            lambdas:    1.0000      1.0000    
-------------------------------------------------------------------------------
L=0  Nkbl=1  erefs: 0.17977+309
L=1  Nkbl=1  erefs: 0.17977+309
L=2  Nkbl=1  erefs: 0.17977+309
L=3  Nkbl=1  erefs: 0.17977+309
===============================================================================
</basis_specs>

atom: Called for C                     (Z =   6)

read_vps: Pseudopotential generation method:
read_vps: ATM3      Troullier-Martins                       
Valence charge for ps generation:    4.00000

read_vps: Pseudopotential includes a core correction:
read_vps: Pseudo-core for xc-correction

xc_check: Exchange-correlation functional:
xc_check: Ceperley-Alder
xc_check: WARNING: Pseudopotential generated with GGA PBE functional
V l=0 = -2*Zval/r beyond r=  1.5227
V l=1 = -2*Zval/r beyond r=  1.5227
V l=2 = -2*Zval/r beyond r=  1.5227
V l=3 = -2*Zval/r beyond r=  1.5038
All V_l potentials equal beyond r=  1.5227
This should be close to max(r_c) in ps generation
All pots = -2*Zval/r beyond r=  1.5227

VLOCAL1: 99.0% of the norm of Vloc inside     18.722 Ry
VLOCAL1: 99.9% of the norm of Vloc inside     42.668 Ry
atom: Maximum radius for 4*pi*r*r*local-pseudopot. charge    1.83678
atom: Maximum radius for r*vlocal+2*Zval:    1.58088

KBgen: Kleinman-Bylander projectors: 
GHOST: No ghost state for L =  0
   l= 0   rc=  1.704034   el= -0.998584   Ekb=  5.327875   kbcos=  0.314897
GHOST: No ghost state for L =  1
   l= 1   rc=  1.704034   el= -0.383998   Ekb= -3.785479   kbcos= -0.363289
GHOST: No ghost state for L =  2
   l= 2   rc=  1.791422   el=  0.002326   Ekb= -0.971263   kbcos= -0.009325
GHOST: No ghost state for L =  3
   l= 3   rc=  1.859892   el=  0.003420   Ekb= -0.399672   kbcos= -0.001232

KBgen: Total number of  Kleinman-Bylander projectors:   16
atom: -------------------------------------------------------------------------

atom: SANKEY-TYPE ORBITALS:
atom: Selected multiple-zeta basis: split     

SPLIT: Orbitals with angular momentum L= 0

SPLIT: Basis orbitals for state 2s

SPLIT: PAO cut-off radius determined from an
SPLIT: energy shift=  0.020000 Ry

   izeta = 1
                 lambda =    1.000000
                     rc =    4.191849
                 energy =   -0.980459
                kinetic =    0.881507
    potential(screened) =   -1.861966
       potential(ionic) =   -5.449625

   izeta = 2
                 rmatch =    3.431921
              splitnorm =    0.150000
                 energy =   -0.849396
                kinetic =    1.300036
    potential(screened) =   -2.149433
       potential(ionic) =   -5.962781

SPLIT: Orbitals with angular momentum L= 1

SPLIT: Basis orbitals for state 2p

SPLIT: PAO cut-off radius determined from an
SPLIT: energy shift=  0.020000 Ry

   izeta = 1
                 lambda =    1.000000
                     rc =    4.993604
                 energy =   -0.366127
                kinetic =    2.463190
    potential(screened) =   -2.829316
       potential(ionic) =   -6.291180

   izeta = 2
                 rmatch =    3.518811
              splitnorm =    0.150000
                 energy =   -0.204163
                kinetic =    3.723883
    potential(screened) =   -3.928045
       potential(ionic) =   -7.766545

POLgen: Perturbative polarization orbital with L=  2

POLgen: Polarization orbital for state 2p

   izeta = 1
                     rc =    4.993604
                 energy =    1.232619
                kinetic =    2.527283
    potential(screened) =   -1.294664
       potential(ionic) =   -4.203101
atom: Total number of Sankey-type orbitals: 13

atm_pop: Valence configuration (for local Pseudopot. screening):
 2s( 2.00)                                                            
 2p( 2.00)                                                            
Vna: chval, zval:    4.00000   4.00000

Vna:  Cut-off radius for the neutral-atom potential:   4.993604
comcore: Pseudo-core radius Rcore=  1.791422

atom: _________________________________________________________________________

<basis_specs>
===============================================================================
N                    Z=   7    Mass=  14.010        Charge= 0.17977+309
Lmxo=1 Lmxkb= 3    BasisType=split      Semic=F
L=0  Nsemic=0  Cnfigmx=2
          i=1  nzeta=2  polorb=0  (2s)
            splnorm:   0.15000    
               vcte:    0.0000    
               rinn:    0.0000    
               qcoe:    0.0000    
               qyuk:    0.0000    
               qwid:   0.10000E-01
                rcs:    0.0000      0.0000    
            lambdas:    1.0000      1.0000    
L=1  Nsemic=0  Cnfigmx=2
          i=1  nzeta=2  polorb=1  (2p)
            splnorm:   0.15000    
               vcte:    0.0000    
               rinn:    0.0000    
               qcoe:    0.0000    
               qyuk:    0.0000    
               qwid:   0.10000E-01
                rcs:    0.0000      0.0000    
            lambdas:    1.0000      1.0000    
-------------------------------------------------------------------------------
L=0  Nkbl=1  erefs: 0.17977+309
L=1  Nkbl=1  erefs: 0.17977+309
L=2  Nkbl=1  erefs: 0.17977+309
L=3  Nkbl=1  erefs: 0.17977+309
===============================================================================
</basis_specs>

atom: Called for N                     (Z =   7)

read_vps: Pseudopotential generation method:
read_vps: ATM3      Troullier-Martins                       
Valence charge for ps generation:    5.00000

read_vps: Pseudopotential includes a core correction:
read_vps: Pseudo-core for xc-correction

xc_check: Exchange-correlation functional:
xc_check: Ceperley-Alder
xc_check: WARNING: Pseudopotential generated with GGA PBE functional
V l=0 = -2*Zval/r beyond r=  1.4606
V l=1 = -2*Zval/r beyond r=  1.4606
V l=2 = -2*Zval/r beyond r=  1.4606
V l=3 = -2*Zval/r beyond r=  1.4606
All V_l potentials equal beyond r=  1.4606
This should be close to max(r_c) in ps generation
All pots = -2*Zval/r beyond r=  1.4606

VLOCAL1: 99.0% of the norm of Vloc inside     20.347 Ry
VLOCAL1: 99.9% of the norm of Vloc inside     46.372 Ry
atom: Maximum radius for 4*pi*r*r*local-pseudopot. charge    1.76189
atom: Maximum radius for r*vlocal+2*Zval:    1.53550

KBgen: Kleinman-Bylander projectors: 
GHOST: No ghost state for L =  0
   l= 0   rc=  1.634559   el= -1.348537   Ekb=  5.297520   kbcos=  0.333054
GHOST: No ghost state for L =  1
   l= 1   rc=  1.614250   el= -0.512415   Ekb= -5.262296   kbcos= -0.428933
GHOST: No ghost state for L =  2
   l= 2   rc=  1.718383   el=  0.002346   Ekb= -1.271998   kbcos= -0.007619
GHOST: No ghost state for L =  3
   l= 3   rc=  1.761893   el=  0.003449   Ekb= -0.494630   kbcos= -0.001017

KBgen: Total number of  Kleinman-Bylander projectors:   16
atom: -------------------------------------------------------------------------

atom: SANKEY-TYPE ORBITALS:
atom: Selected multiple-zeta basis: split     

SPLIT: Orbitals with angular momentum L= 0

SPLIT: Basis orbitals for state 2s

SPLIT: PAO cut-off radius determined from an
SPLIT: energy shift=  0.020000 Ry

   izeta = 1
                 lambda =    1.000000
                     rc =    3.683980
                 energy =   -1.330014
                kinetic =    1.203086
    potential(screened) =   -2.533100
       potential(ionic) =   -8.093205

   izeta = 2
                 rmatch =    2.905100
              splitnorm =    0.150000
                 energy =   -1.134717
                kinetic =    1.810562
    potential(screened) =   -2.945280
       potential(ionic) =   -8.899916

SPLIT: Orbitals with angular momentum L= 1

SPLIT: Basis orbitals for state 2p

SPLIT: PAO cut-off radius determined from an
SPLIT: energy shift=  0.020000 Ry

   izeta = 1
                 lambda =    1.000000
                     rc =    4.388595
                 energy =   -0.493943
                kinetic =    3.501321
    potential(screened) =   -3.995264
       potential(ionic) =   -9.374806

   izeta = 2
                 rmatch =    2.978652
              splitnorm =    0.150000
                 energy =   -0.289183
                kinetic =    5.180785
    potential(screened) =   -5.469968
       potential(ionic) =  -11.438899

POLgen: Perturbative polarization orbital with L=  2

POLgen: Polarization orbital for state 2p

   izeta = 1
                     rc =    4.388595
                 energy =    1.759924
                kinetic =    3.542120
    potential(screened) =   -1.782196
       potential(ionic) =   -6.226799
atom: Total number of Sankey-type orbitals: 13

atm_pop: Valence configuration (for local Pseudopot. screening):
 2s( 2.00)                                                            
 2p( 3.00)                                                            
Vna: chval, zval:    5.00000   5.00000

Vna:  Cut-off radius for the neutral-atom potential:   4.388595
comcore: Pseudo-core radius Rcore=  1.554824

atom: _________________________________________________________________________

<basis_specs>
===============================================================================
H                    Z=   1    Mass=  1.0100        Charge= 0.17977+309
Lmxo=0 Lmxkb= 2    BasisType=split      Semic=F
L=0  Nsemic=0  Cnfigmx=1
          i=1  nzeta=2  polorb=1  (1s)
            splnorm:   0.15000    
               vcte:    0.0000    
               rinn:    0.0000    
               qcoe:    0.0000    
               qyuk:    0.0000    
               qwid:   0.10000E-01
                rcs:    0.0000      0.0000    
            lambdas:    1.0000      1.0000    
-------------------------------------------------------------------------------
L=0  Nkbl=1  erefs: 0.17977+309
L=1  Nkbl=1  erefs: 0.17977+309
L=2  Nkbl=1  erefs: 0.17977+309
===============================================================================
</basis_specs>

atom: Called for H                     (Z =   1)

read_vps: Pseudopotential generation method:
read_vps: ATM3      Troullier-Martins                       
Valence charge for ps generation:    1.00000

xc_check: Exchange-correlation functional:
xc_check: Ceperley-Alder
xc_check: WARNING: Pseudopotential generated with GGA PBE functional
V l=0 = -2*Zval/r beyond r=  1.2977
V l=1 = -2*Zval/r beyond r=  1.2815
V l=2 = -2*Zval/r beyond r=  1.2656
All V_l potentials equal beyond r=  1.2977
This should be close to max(r_c) in ps generation
All pots = -2*Zval/r beyond r=  1.2977

VLOCAL1: 99.0% of the norm of Vloc inside     25.776 Ry
VLOCAL1: 99.9% of the norm of Vloc inside     58.745 Ry
atom: Maximum radius for 4*pi*r*r*local-pseudopot. charge    1.52711
atom: Maximum radius for r*vlocal+2*Zval:    1.28155

KBgen: Kleinman-Bylander projectors: 
GHOST: No ghost state for L =  0
   l= 0   rc=  1.434438   el= -0.456815   Ekb= -1.960338   kbcos= -0.349997
GHOST: No ghost state for L =  1
   l= 1   rc=  1.508111   el=  0.001431   Ekb= -0.423993   kbcos= -0.025386
GHOST: No ghost state for L =  2
   l= 2   rc=  1.546352   el=  0.002365   Ekb= -0.376562   kbcos= -0.002012

KBgen: Total number of  Kleinman-Bylander projectors:    9
atom: -------------------------------------------------------------------------

atom: SANKEY-TYPE ORBITALS:
atom: Selected multiple-zeta basis: split     

SPLIT: Orbitals with angular momentum L= 0

SPLIT: Basis orbitals for state 1s

SPLIT: PAO cut-off radius determined from an
SPLIT: energy shift=  0.020000 Ry

   izeta = 1
                 lambda =    1.000000
                     rc =    4.828263
                 energy =   -0.438372
                kinetic =    0.921576
    potential(screened) =   -1.359947
       potential(ionic) =   -1.906664

   izeta = 2
                 rmatch =    3.903467
              splitnorm =    0.150000
                 energy =   -0.330751
                kinetic =    1.475177
    potential(screened) =   -1.805928
       potential(ionic) =   -2.389550

POLgen: Perturbative polarization orbital with L=  1

POLgen: Polarization orbital for state 1s

   izeta = 1
                     rc =    4.828263
                 energy =    0.711580
                kinetic =    1.391494
    potential(screened) =   -0.679914
       potential(ionic) =   -1.168115
atom: Total number of Sankey-type orbitals:  5

atm_pop: Valence configuration (for local Pseudopot. screening):
 1s( 1.00)                                                            
Vna: chval, zval:    1.00000   1.00000

Vna:  Cut-off radius for the neutral-atom potential:   4.828263

atom: _________________________________________________________________________

<basis_specs>
===============================================================================
O                    Z=   8    Mass=  16.000        Charge= 0.17977+309
Lmxo=1 Lmxkb= 3    BasisType=split      Semic=F
L=0  Nsemic=0  Cnfigmx=2
          i=1  nzeta=2  polorb=0  (2s)
            splnorm:   0.15000    
               vcte:    0.0000    
               rinn:    0.0000    
               qcoe:    0.0000    
               qyuk:    0.0000    
               qwid:   0.10000E-01
                rcs:    0.0000      0.0000    
            lambdas:    1.0000      1.0000    
L=1  Nsemic=0  Cnfigmx=2
          i=1  nzeta=2  polorb=1  (2p)
            splnorm:   0.15000    
               vcte:    0.0000    
               rinn:    0.0000    
               qcoe:    0.0000    
               qyuk:    0.0000    
               qwid:   0.10000E-01
                rcs:    0.0000      0.0000    
            lambdas:    1.0000      1.0000    
-------------------------------------------------------------------------------
L=0  Nkbl=1  erefs: 0.17977+309
L=1  Nkbl=1  erefs: 0.17977+309
L=2  Nkbl=1  erefs: 0.17977+309
L=3  Nkbl=1  erefs: 0.17977+309
===============================================================================
</basis_specs>

atom: Called for O                     (Z =   8)

read_vps: Pseudopotential generation method:
read_vps: ATM3      Troullier-Martins                       
Valence charge for ps generation:    6.00000

read_vps: Pseudopotential includes a core correction:
read_vps: Pseudo-core for xc-correction

xc_check: Exchange-correlation functional:
xc_check: Ceperley-Alder
xc_check: WARNING: Pseudopotential generated with GGA PBE functional
V l=0 = -2*Zval/r beyond r=  1.4482
V l=1 = -2*Zval/r beyond r=  1.4482
V l=2 = -2*Zval/r beyond r=  1.4482
V l=3 = -2*Zval/r beyond r=  1.4482
All V_l potentials equal beyond r=  1.4482
This should be close to max(r_c) in ps generation
All pots = -2*Zval/r beyond r=  1.4482

VLOCAL1: 99.0% of the norm of Vloc inside     20.696 Ry
VLOCAL1: 99.9% of the norm of Vloc inside     47.167 Ry
atom: Maximum radius for 4*pi*r*r*local-pseudopot. charge    1.74697
atom: Maximum radius for r*vlocal+2*Zval:    1.52250

KBgen: Kleinman-Bylander projectors: 
GHOST: No ghost state for L =  0
   l= 0   rc=  1.620715   el= -1.738829   Ekb=  4.895054   kbcos=  0.290645
GHOST: No ghost state for L =  1
   l= 1   rc=  1.600578   el= -0.650915   Ekb= -6.916539   kbcos= -0.494696
GHOST: No ghost state for L =  2
   l= 2   rc=  1.703827   el=  0.002386   Ekb= -1.538961   kbcos= -0.006789
GHOST: No ghost state for L =  3
   l= 3   rc=  1.746967   el=  0.003508   Ekb= -0.568530   kbcos= -0.000966

KBgen: Total number of  Kleinman-Bylander projectors:   16
atom: -------------------------------------------------------------------------

atom: SANKEY-TYPE ORBITALS:
atom: Selected multiple-zeta basis: split     

SPLIT: Orbitals with angular momentum L= 0

SPLIT: Basis orbitals for state 2s

SPLIT: PAO cut-off radius determined from an
SPLIT: energy shift=  0.020000 Ry

   izeta = 1
                 lambda =    1.000000
                     rc =    3.305093
                 energy =   -1.720120
                kinetic =    1.583509
    potential(screened) =   -3.303629
       potential(ionic) =  -11.248859

   izeta = 2
                 rmatch =    2.510382
              splitnorm =    0.150000
                 energy =   -1.472890
                kinetic =    2.379100
    potential(screened) =   -3.851990
       potential(ionic) =  -12.389687

SPLIT: Orbitals with angular momentum L= 1

SPLIT: Basis orbitals for state 2p

SPLIT: PAO cut-off radius determined from an
SPLIT: energy shift=  0.020000 Ry

   izeta = 1
                 lambda =    1.000000
                     rc =    3.937239
                 energy =   -0.631844
                kinetic =    4.616405
    potential(screened) =   -5.248250
       potential(ionic) =  -12.927368

   izeta = 2
                 rmatch =    2.573941
              splitnorm =    0.150000
                 energy =   -0.344812
                kinetic =    6.889580
    potential(screened) =   -7.234392
       potential(ionic) =  -15.793960

POLgen: Perturbative polarization orbital with L=  2

POLgen: Polarization orbital for state 2p

   izeta = 1
                     rc =    3.937239
                 energy =    2.368129
                kinetic =    4.725445
    potential(screened) =   -2.357315
       potential(ionic) =   -8.649185
atom: Total number of Sankey-type orbitals: 13

atm_pop: Valence configuration (for local Pseudopot. screening):
 2s( 2.00)                                                            
 2p( 4.00)                                                            
Vna: chval, zval:    6.00000   6.00000

Vna:  Cut-off radius for the neutral-atom potential:   3.937239
comcore: Pseudo-core radius Rcore=  1.377587

atom: _________________________________________________________________________

prinput: Basis input ----------------------------------------------------------

PAO.BasisType split     

%block ChemicalSpeciesLabel
    1    6 C                       # Species index, atomic number, species label
    2    7 N                       # Species index, atomic number, species label
    3    1 H                       # Species index, atomic number, species label
    4    8 O                       # Species index, atomic number, species label
%endblock ChemicalSpeciesLabel

%block PAO.Basis                 # Define Basis set
C                     2                    # Species label, number of l-shells
 n=2   0   2                         # n, l, Nzeta 
   4.192      3.432   
   1.000      1.000   
 n=2   1   2 P   1                   # n, l, Nzeta, Polarization, NzetaPol
   4.994      3.519   
   1.000      1.000   
N                     2                    # Species label, number of l-shells
 n=2   0   2                         # n, l, Nzeta 
   3.684      2.905   
   1.000      1.000   
 n=2   1   2 P   1                   # n, l, Nzeta, Polarization, NzetaPol
   4.389      2.979   
   1.000      1.000   
H                     1                    # Species label, number of l-shells
 n=1   0   2 P   1                   # n, l, Nzeta, Polarization, NzetaPol
   4.828      3.903   
   1.000      1.000   
O                     2                    # Species label, number of l-shells
 n=2   0   2                         # n, l, Nzeta 
   3.305      2.510   
   1.000      1.000   
 n=2   1   2 P   1                   # n, l, Nzeta, Polarization, NzetaPol
   3.937      2.574   
   1.000      1.000   
%endblock PAO.Basis

prinput: ----------------------------------------------------------------------

coor:   Atomic-coordinates input format  =     Cartesian coordinates
coor:                                          (in Angstroms)

siesta: Atomic coordinates (Bohr) and species
siesta:     46.66650  37.87219  18.36746  1        1
siesta:     44.59732  37.81338  20.07791  1        2
siesta:     43.29852  40.32378  20.64460  1        3
siesta:     44.03803  42.66607  19.00411  1        4
siesta:     46.71478  42.50621  17.94908  1        5
siesta:     47.74393  40.14442  17.46129  1        6
siesta:     47.68758  35.55705  17.54799  1        7
siesta:     46.82170  33.25809  18.51139  1        8
siesta:     45.13994  33.18015  20.58595  1        9
siesta:     43.89045  35.47538  21.28833  1       10
siesta:     47.65178  30.95895  17.38777  1       11
siesta:     46.96475  28.63819  18.43210  1       12
siesta:     45.88049  28.76889  20.87499  1       13
siesta:     44.86469  30.95502  21.80516  2       14
siesta:     49.25900  31.01664  15.24902  1       15
siesta:     49.74319  28.82839  13.79050  1       16
siesta:     48.45100  26.56658  14.44556  1       17
siesta:     47.34585  26.43858  16.86518  1       18
siesta:     49.68629  35.54638  15.75610  1       19
siesta:     50.43327  33.26516  14.58814  1       20
siesta:     49.96662  40.11321  15.96252  1       21
siesta:     50.92428  37.77020  15.14085  1       22
siesta:     47.77553  44.70258  17.10602  2       23
siesta:     49.95159  44.68434  15.73785  1       24
siesta:     51.09465  42.39661  15.15808  1       25
siesta:     47.79915  24.24429  13.14852  1       26
siesta:     46.79092  22.63982  14.94309  1       27
siesta:     46.72637  23.93473  17.18891  2       28
siesta:     47.80347  23.39530  10.60193  1       29
siesta:     46.78911  20.99335   9.90016  1       30
siesta:     45.87931  19.37966  11.83495  1       31
siesta:     45.94896  20.20368  14.38018  1       32
siesta:     52.38631  33.25821  12.74831  1       33
siesta:     52.88327  31.06213  11.34443  1       34
siesta:     51.49028  28.89269  11.79389  1       35
siesta:     53.14139  37.62619  13.65327  1       36
siesta:     53.81598  35.40723  12.40160  1       37
siesta:     53.39222  42.25835  13.48006  1       38
siesta:     54.87526  39.83241  13.61372  1       39
siesta:     41.74990  35.47252  23.31856  1       40
siesta:     40.13208  33.05450  23.43094  1       41
siesta:     42.71332  36.24389  25.98446  1       42
siesta:     40.74014  36.27537  28.13595  1       43
siesta:     38.51330  38.05053  27.71267  1       44
siesta:     45.95168  26.55220  22.69207  1       45
siesta:     47.29238  27.15799  25.21084  1       46
siesta:     47.37252  24.91145  27.08291  1       47
siesta:     48.75909  22.61668  25.98353  1       48
siesta:     49.04914  20.32773  27.75134  1       49
siesta:     50.54815  18.15023  26.46346  1       50
siesta:     53.28409  18.94869  25.83373  1       51
siesta:     54.84194  16.89236  24.56341  1       52
siesta:     50.49607  15.75143  28.09088  1       53
siesta:     44.63790  16.80971  11.45252  1       54
siesta:     46.47342  14.57081  11.62198  1       55
siesta:     45.12712  12.02567  11.50194  1       56
siesta:     46.51484  20.49789   7.06010  1       57
siesta:     48.01647  18.27287   5.95103  1       58
siesta:     47.83257  17.96500   3.04005  1       59
siesta:     49.32524  15.61322   2.18301  1       60
siesta:     45.09738  17.85434   2.04174  1       61
siesta:     43.49506  15.76109   3.19617  1       62
siesta:     50.96870  47.30433  15.05941  1       63
siesta:     52.29153  47.67381  12.48650  1       64
siesta:     53.49497  50.26642  12.00011  1       65
siesta:     54.95179  50.16855   9.48680  1       66
siesta:     51.54447  52.36746  11.99822  1       67
siesta:     43.39652  45.11642  20.49327  1       68
siesta:     43.92216  47.61591  19.14718  1       69
siesta:     43.62211  40.76207  22.63932  3       70
siesta:     41.25176  40.06714  20.39036  3       71
siesta:     42.80820  42.63874  17.32580  3       72
siesta:     45.97110  23.18959  18.77296  3       73
siesta:     48.40617  24.70796   9.13848  3       74
siesta:     45.21041  19.01447  15.88291  3       75
siesta:     54.33752  31.06512   9.91251  3       76
siesta:     51.89747  27.20711  10.68852  3       77
siesta:     55.47212  35.39167  11.19642  3       78
siesta:     52.75518  42.55110  11.52422  3       79
siesta:     54.75952  43.67708  14.06812  3       80
siesta:     55.99594  39.81339  15.35995  3       81
siesta:     56.20467  39.75770  12.02742  3       82
siesta:     40.39360  36.91954  22.72127  3       83
siesta:     41.14562  31.45232  24.25301  3       84
siesta:     39.44514  32.52579  21.55272  3       85
siesta:     38.45610  33.33355  24.61365  3       86
siesta:     43.56725  38.12877  25.89228  3       87
siesta:     44.23873  34.96079  26.55488  3       88
siesta:     41.68813  36.83802  29.89406  3       89
siesta:     40.02257  34.36340  28.47765  3       90
siesta:     39.13760  40.01366  27.53516  3       91
siesta:     37.20447  37.94848  29.31635  3       92
siesta:     37.44653  37.54360  26.01863  3       93
siesta:     47.01417  25.00913  21.84212  3       94
siesta:     44.02252  25.88761  23.02994  3       95
siesta:     46.36004  28.75920  26.13723  3       96
siesta:     49.23890  27.76991  24.81798  3       97
siesta:     45.44326  24.38939  27.62088  3       98
siesta:     48.33497  25.54179  28.81022  3       99
siesta:     50.61420  23.27179  25.35374  3      100
siesta:     47.73484  21.94755  24.31700  3      101
siesta:     47.15579  19.63454  28.24185  3      102
siesta:     49.96765  20.87239  29.52809  3      103
siesta:     49.58642  17.69354  24.68203  3      104
siesta:     54.25175  19.57698  27.55494  3      105
siesta:     53.26637  20.55822  24.53461  3      106
siesta:     55.15642  15.28628  25.82337  3      107
siesta:     56.69863  17.63674  24.03686  3      108
siesta:     53.90827  16.21940  22.84475  3      109
siesta:     51.57065  15.99667  29.84180  3      110
siesta:     51.30430  14.14122  27.06878  3      111
siesta:     48.55803  15.22096  28.57991  3      112
siesta:     43.56522  16.77502   9.68566  3      113
siesta:     43.20223  16.56960  12.94136  3      114
siesta:     47.59140  14.66019  13.36450  3      115
siesta:     47.83117  14.64346  10.07169  3      116
siesta:     43.83136  11.76239  13.09415  3      117
siesta:     46.51684  10.49169  11.56032  3      118
siesta:     44.05140  11.83456   9.74551  3      119
siesta:     47.08535  22.20341   6.01831  3      120
siesta:     44.49327  20.28468   6.66422  3      121
siesta:     47.33124  16.52731   6.79534  3      122
siesta:     50.01525  18.45310   6.47401  3      123
siesta:     48.73293  19.60536   2.14190  3      124
siesta:     49.02962  14.00303   3.45077  3      125
siesta:     51.35559  16.01226   2.15219  3      126
siesta:     48.78637  15.01341   0.27398  3      127
siesta:     45.14153  17.60355  -0.01705  3      128
siesta:     44.16181  19.67689   2.35410  3      129
siesta:     44.58343  14.03827   3.53542  3      130
siesta:     41.93086  15.28221   1.93105  3      131
siesta:     42.67926  16.36976   4.99553  3      132
siesta:     52.24688  47.88320  16.58512  3      133
siesta:     49.35987  48.61356  15.11888  3      134
siesta:     50.98919  47.15210  10.96139  3      135
siesta:     53.91130  46.44382  12.29436  3      136
siesta:     54.88285  50.65559  13.49331  3      137
siesta:     53.80372  49.34934   7.97069  3      138
siesta:     56.65034  48.99361   9.67958  3      139
siesta:     55.56851  52.04922   8.89046  3      140
siesta:     49.90215  51.85919  10.85023  3      141
siesta:     52.34912  54.12087  11.25564  3      142
siesta:     50.90272  52.74110  13.92841  3      143
siesta:     44.40502  45.12915  22.30337  3      144
siesta:     41.37044  45.07719  20.94227  3      145
siesta:     45.93093  48.10344  19.22396  3      146
siesta:     42.93972  49.17268  20.08765  3      147
siesta:     43.31527  47.56262  17.17065  3      148
siesta:     45.17608  51.62833   0.27993  1      149
siesta:     44.63728  53.42125   0.02256  1      150
siesta:     42.79982  53.84978  -0.08312  1      151
siesta:     41.50116  52.48539   0.06857  1      152
siesta:     39.66369  52.91392  -0.03711  1      153
siesta:     38.36503  51.54955   0.11457  1      154
siesta:     36.52757  51.97809   0.00889  1      155
siesta:     35.22891  50.61370   0.16058  1      156
siesta:     33.39145  51.04223   0.05490  1      157
siesta:     32.09278  49.67784   0.20658  1      158
siesta:     30.25532  50.10637   0.10090  1      159
siesta:     28.95666  48.74201   0.25258  1      160
siesta:     27.11920  49.17054   0.14691  1      161
siesta:     25.82053  47.80615   0.29859  1      162
siesta:     23.98307  48.23468   0.19291  1      163
siesta:     22.68441  46.87031   0.34459  1      164
siesta:     20.84695  47.29885   0.23891  1      165
siesta:     19.54828  45.93446   0.39060  1      166
siesta:     17.71082  46.36299   0.28492  1      167
siesta:     16.41216  44.99862   0.43660  1      168
siesta:     14.57470  45.42715   0.33092  1      169
siesta:     13.27603  44.06277   0.48261  1      170
siesta:     11.43857  44.49130   0.37693  4      171
siesta:     13.81483  42.26986   0.73997  1      172
siesta:     12.51617  40.90548   0.89166  1      173
siesta:     10.67870  41.33401   0.78598  1      174
siesta:      9.38004  39.96964   0.93766  1      175
siesta:      7.54258  40.39817   0.83198  1      176
siesta:      6.24392  39.03378   0.98367  1      177
siesta:      4.40646  39.46232   0.87799  1      178
siesta:      3.10780  38.09795   1.02967  1      179
siesta:      1.27033  38.52648   0.92399  1      180
siesta:     -0.02833  37.16209   1.07567  4      181
siesta:     53.89812  54.79576   1.42061  1      182
siesta:     51.33742  54.05761   2.36064  1      183
siesta:     49.40936  55.73015   2.05526  2      184
siesta:     47.06883  55.13179   2.87956  1      185
siesta:     46.42811  52.88219   4.05356  1      186
siesta:     48.38142  51.12490   4.39128  1      187
siesta:     48.52130  48.65288   5.48255  1      188
siesta:     46.74968  47.03119   6.63785  1      189
siesta:     47.53611  44.66703   7.52681  1      190
siesta:     50.04407  43.90747   7.27995  1      191
siesta:     51.83601  45.47898   6.14176  1      192
siesta:     51.01565  47.83597   5.26475  1      193
siesta:     52.33830  49.73624   4.08878  2      194
siesta:     54.20041  49.65856   3.68437  3      195
siesta:     50.79246  51.75287   3.53683  1      196
siesta:     53.86144  56.68140   0.57230  3      197
siesta:     54.54408  53.45096  -0.01136  3      198
siesta:     55.25127  54.81244   2.98430  3      199
siesta:     45.64739  56.57851   2.55708  3      200
siesta:     44.51370  52.51302   4.67314  3      201
siesta:     44.79010  47.60572   6.83931  3      202
siesta:     46.17328  43.41411   8.41810  3      203
siesta:     50.61911  42.06329   7.98247  3      204
siesta:     53.78815  44.88041   5.95381  3      205

siesta: System type = molecule  

initatomlists: Number of atoms, orbitals, and projectors:    205  1953  2657

coxmol: Writing XMOL coordinates into file siesta.xyz                                                          

siesta: ******************** Simulation parameters ****************************
siesta:
siesta: The following are some of the parameters of the simulation.
siesta: A complete list of the parameters used, including default values,
siesta: can be found in file out.fdf
siesta:
redata: Spin configuration                          = collinear
redata: Number of spin components                   = 2
redata: Time-Reversal Symmetry                      = T
redata: Spin spiral                                 = F
redata: Long output                                 =   T
redata: Number of Atomic Species                    =        4
redata: Charge density info will appear in .RHO file
redata: Write Mulliken Pop.                         = Atomic and Orbital charges
redata: Matel table size (NRTAB)                    =     1024
redata: Mesh Cutoff                                 =   100.0000 Ry
redata: Net charge of the system                    =     0.0000 |e|
redata: Min. number of SCF Iter                     =        0
redata: Max. number of SCF Iter                     =      100
redata: SCF convergence failure will abort job
redata: SCF mix quantity                            = Hamiltonian
redata: Mix DM or H after convergence               =   F
redata: Recompute H after scf cycle                 =   F
redata: Mix DM in first SCF step                    =   T
redata: Write Pulay info on disk                    =   F
redata: New DM Occupancy tolerance                  = 0.000000000001
redata: No kicks to SCF
redata: DM Mixing Weight for Kicks                  =     0.5000
redata: Require Harris convergence for SCF          =   F
redata: Harris energy tolerance for SCF             =     0.000100 eV
redata: Require DM convergence for SCF              =   T
redata: DM tolerance for SCF                        =     0.001000
redata: Require EDM convergence for SCF             =   F
redata: EDM tolerance for SCF                       =     0.001000 eV
redata: Require H convergence for SCF               =   T
redata: Hamiltonian tolerance for SCF               =     0.001000 eV
redata: Require (free) Energy convergence for SCF   =   F
redata: (free) Energy tolerance for SCF             =     0.000100 eV
redata: Antiferro initial spin density              =   F
redata: Using Saved Data (generic)                  =   F
redata: Use continuation files for DM               =   F
redata: Neglect nonoverlap interactions             =   F
redata: Method of Calculation                       = Diagonalization
redata: Electronic Temperature                      =   299.9869 K
redata: Fix the spin of the system                  =   F
redata: Max. number of TDED Iter                    =        1
redata: Number of TDED substeps                     =        3
redata: Dynamics option                             = Nose thermostat MD run
redata: Initial MD time step                        =        1
redata:   Final MD time step                        =       10
redata: Length of MD time step                      =     1.0000 fs
redata: Initial Temperature of MD run               =   300.0000 K
redata: Perform a MD quench                         =   F
redata: Nose mass                                   =  1360.5800 eV/fs**2
redata: Target Temperature                          =   300.0000 Kelvin
mix.SCF: Pulay mixing                            = Pulay
mix.SCF:    Variant                              = stable
mix.SCF:    History steps                        = 3
mix.SCF:    Linear mixing weight                 =     0.250000
mix.SCF:    Mixing weight                        =     0.250000
mix.SCF:    SVD condition                        = 0.1000E-07
mix.SCF: Spin-component mixing                   all
redata: ***********************************************************************

%block SCF.Mixers
  Pulay
%endblock SCF.Mixers

%block SCF.Mixer.Pulay
  # Mixing method
  method pulay
  variant stable

  # Mixing options
  weight 0.2500
  weight.linear 0.2500
  history 3
%endblock SCF.Mixer.Pulay

Size of DM history Fstack: 1
Total number of electrons:   562.000000
Total ionic charge:   562.000000
 Kpoints in:            1 . Kpoints trimmed:            1

siesta: k-point coordinates (Bohr**-1) and weights:
siesta:          1  0.000000E+00  0.000000E+00  0.000000E+00   0.100000E+01

siesta: k-grid: Number of k-points =         1
siesta: k-points from Monkhorst-Pack grid
siesta: k-cutoff (effective) =    11.932 Ang
siesta: k-point supercell and displacements
siesta: k-grid:    1   0   0      0.000
siesta: k-grid:    0   1   0      0.000
siesta: k-grid:    0   0   1      0.000
 Kpoints in:            1 . Kpoints trimmed:            1

siesta: PDOS k-point coordinates (Bohr**-1) and weights:
siesta:          1  0.000000E+00  0.000000E+00  0.000000E+00   0.100000E+01

siesta: PDOS k-grid: Number of k-points =         1
siesta: PDOS k-points from Monkhorst-Pack grid
siesta: PDOS k-cutoff (effective) =     0.000 Ang
siesta: PDOS k-point supercell and displacements
siesta: k-grid:    1   0   0      0.000
siesta: k-grid:    0   1   0      0.000
siesta: k-grid:    0   0   1      0.000

diag: Algorithm                                     = D&C
diag: Used triangular part                          = Lower
diag: Absolute tolerance                            =  0.100E-15
diag: Orthogonalization factor                      =  0.100E-05
diag: Memory factor                                 =  1.0000
Using LatticeConstant from fdf file for BandLinesScale:    1.889727 Bohr
Beware any cell changes by the end of the run
Using LatticeConstant from fdf file for BandLinesScale:    1.889727 Bohr
Beware any cell changes by the end of the run


ts: **************************************************************
ts: Save H and S matrices                           =    F
ts: Save DM and EDM matrices                        =    F
ts: Only save the overlap matrix S                  =    F
ts: **************************************************************

************************ Begin: TS CHECKS AND WARNINGS ************************
************************ End: TS CHECKS AND WARNINGS **************************


                     ====================================
                        Begin MD step =      1
                     ====================================

outcoor: Atomic coordinates (Ang):                          
   24.69483900   20.04109000    9.71963500   1       1  C
   23.59987500   20.00997300   10.62476800   1       2  C
   22.91258000   21.33841700   10.92464500   1       3  C
   23.30391100   22.57790100   10.05653900   1       4  C
   24.72038700   22.49331100    9.49824200   1       5  C
   25.26498800   21.24350300    9.24011400   1       6  C
   25.23517200   18.81597200    9.28599500   1       7  C
   24.77696500   17.59941400    9.79580400   1       8  C
   23.88701700   17.55817000   10.89361300   1       9  C
   23.22581900   18.77275400   11.26529400   1      10  C
   25.21622600   16.38276200    9.20120900   1      11  C
   24.85266600   15.15467000    9.75384500   1      12  C
   24.27889900   15.22383300   11.04656200   1      13  C
   23.74136100   16.38068700   11.53878800   2      14  N
   26.06673100   16.41329400    8.06943300   1      15  C
   26.32295200   15.25532300    7.29761600   1      16  C
   25.63915400   14.05842100    7.64425800   1      17  C
   25.05433700   13.99068900    8.92466700   1      18  C
   26.29284300   18.81032600    8.33776500   1      19  C
   26.68812600   17.60315600    7.71971000   1      20  C
   26.44118400   21.22699000    8.44699800   1      21  C
   26.94795800   19.98712300    8.01218800   1      22  C
   25.28171000   23.65557900    9.05211200   2      23  N
   26.43323300   23.64592600    8.32811000   1      24  C
   27.03811400   22.43531000    8.02130900   1      25  C
   25.29420900   12.82952300    6.95789600   1      26  C
   24.76067700   11.98047100    7.90754000   1      27  C
   24.72652200   12.66570800    9.09597600   2      28  N
   25.29649500   12.38025600    5.61029600   1      29  C
   24.75972300   11.10919600    5.23893600   1      30  C
   24.27827800   10.25526900    6.26278100   1      31  C
   24.31513100   10.69132300    7.60965800   1      32  C
   27.72163100   17.59948000    6.74611500   1      33  C
   27.98460800   16.43736500    6.00321100   1      34  C
   27.24747000   15.28934800    6.24105400   1      35  C
   28.12119900   19.91091200    7.22499500   1      36  C
   28.47818000   18.73669100    6.56264100   1      37  C
   28.25393300   22.36214600    7.13333600   1      38  C
   29.03872800   21.07839700    7.20406800   1      39  C
   22.09308900   18.77124100   12.33964600   1      40  C
   21.23697300   17.49168200   12.39911700   1      41  C
   22.60290800   19.17943200   13.75038000   1      42  C
   21.55874300   19.19609300   14.88890000   1      43  C
   20.38035500   20.13546400   14.66491000   1      44  C
   24.31657100   14.05081300   12.00812000   1      45  C
   25.02604200   14.37138500   13.34099900   1      46  C
   25.06844600   13.18256800   14.33165200   1      47  C
   25.80219000   11.96822900   13.74988500   1      48  C
   25.95567800   10.75696600   14.68536900   1      49  C
   26.74891600    9.60468400   14.00385600   1      50  C
   28.19671500   10.02721100   13.67061400   1      51  C
   29.02109400    8.93905100   12.99839400   1      52  C
   26.72136000    8.33529500   14.86504900   1      53  C
   23.62134900    8.89531100    6.06040800   1      54  C
   24.59266600    7.71054000    6.15008300   1      55  C
   23.88023300    6.36370700    6.08656300   1      56  C
   24.61458100   10.84701200    3.73604300   1      57  C
   25.40920900    9.66958200    3.14914700   1      58  C
   25.31189800    9.50666600    1.60872700   1      59  C
   26.10178400    8.26215600    1.15519900   1      60  C
   23.86449600    9.44810600    1.08044200   1      61  C
   23.01658300    8.34040600    1.69133800   1      62  C
   26.97146500   25.03236400    7.96909400   1      63  C
   27.67147400   25.22788500    6.60756600   1      64  C
   28.30830900   26.59983100    6.35018400   1      65  C
   29.07922300   26.54804200    5.02019700   1      66  C
   27.27614600   27.71165700    6.34918100   1      67  C
   22.96443900   23.87457000   10.84456700   1      68  C
   23.24259500   25.19724200   10.13224900   1      69  C
   23.08381800   21.57035000   11.98021000   3      70  H
   21.82948400   21.20260900   10.79010900   3      71  H
   22.65311600   22.56344000    9.16841600   3      72  H
   24.32685000   12.27140000    9.93421800   3      73  H
   25.61543400   13.07488600    4.83587500   3      74  H
   23.92431000   10.06201800    8.40487000   3      75  H
   28.75416700   16.43894700    5.24547300   3      76  H
   27.46294600   14.39737700    5.65612100   3      77  H
   29.35457100   18.72846000    5.92488900   3      78  H
   27.91682800   22.51706600    6.09835300   3      79  H
   28.97747600   23.11290600    7.44452400   3      80  H
   29.63176100   21.06832900    8.12813300   3      81  H
   29.74221900   21.03885900    6.36463600   3      82  H
   21.37536300   19.53697300   12.02357500   3      83  H
   21.77331400   16.64384300   12.83413600   3      84  H
   20.87345900   17.21190200   11.40520200   3      85  H
   20.35008500   17.63934700   13.02497700   3      86  H
   23.05478700   20.17686600   13.70159900   3      87  H
   23.41011900   18.50044600   14.05223200   3      88  H
   22.06039700   19.49383400   15.81925100   3      89  H
   21.17902200   18.18432000   15.06971600   3      90  H
   20.71071700   21.17430800   14.57097600   3      91  H
   19.68775000   20.08146300   15.51353900   3      92  H
   19.81584300   19.86720800   13.76846200   3      93  H
   24.87882000   13.23425700   11.55835000   3      94  H
   23.29570700   13.69912600   12.18691200   3      95  H
   24.53266600   15.21870600   13.83122200   3      96  H
   26.05609400   14.69520000   13.13310500   3      97  H
   24.04752800   12.90630300   14.61633300   3      98  H
   25.57775300   13.51612700   15.24570500   3      99  H
   26.78386900   12.31489700   13.41661500   3     100  H
   25.26017800   11.61413800   12.86799600   3     101  H
   24.95376200   10.39014600   14.94493700   3     102  H
   26.44173000   11.04519000   15.62558400   3     103  H
   26.23999300    9.36301500   13.06116500   3     104  H
   28.70877900   10.35968500   14.58144200   3     105  H
   28.18733800   10.87893900   12.98315300   3     106  H
   29.18750700    8.08914900   13.66513600   3     107  H
   30.00361200    9.33295700   12.71975200   3     108  H
   28.52701500    8.58293200   12.08891600   3     109  H
   27.29000400    8.46507000   15.79159600   3     110  H
   27.14905800    7.48321100   14.32417400   3     111  H
   25.69579000    8.05458300   15.12382900   3     112  H
   23.05371200    8.87695500    5.12542600   3     113  H
   22.86162700    8.76825100    6.84826900   3     114  H
   25.18427400    7.75783400    7.07218700   3     115  H
   25.31115300    7.74898300    5.32970500   3     116  H
   23.19454900    6.22438400    6.92912400   3     117  H
   24.61564400    5.55196000    6.11745500   3     118  H
   23.31098800    6.26257900    5.15710200   3     119  H
   24.91648300   11.74953400    3.18475200   3     120  H
   23.54481400   10.73418400    3.52655100   3     121  H
   25.04660200    8.74587100    3.59593800   3     122  H
   26.46692100    9.76495800    3.42589800   3     123  H
   25.78834800   10.37470600    1.13344600   3     124  H
   25.94534600    7.41008200    1.82606800   3     125  H
   27.17619600    8.47332000    1.13888800   3     126  H
   25.81662600    7.94475000    0.14498200   3     127  H
   23.88786100    9.31539500   -0.00902500   3     128  H
   23.36941300   10.41255500    1.24573700   3     129  H
   23.59252500    7.42873200    1.87086300   3     130  H
   22.18884800    8.08699300    1.02186600   3     131  H
   22.58488300    8.66250300    2.64351800   3     132  H
   27.64784700   25.33868900    8.77646500   3     133  H
   26.12010900   25.72518000    8.00056500   3     134  H
   26.98230900   24.95180600    5.80051600   3     135  H
   28.52861900   24.57699900    6.50589500   3     136  H
   29.04274100   26.80577300    7.14034700   3     137  H
   28.47169200   26.11453800    4.21790600   3     138  H
   29.97805500   25.92629400    5.12221100   3     139  H
   29.40557900   27.54325200    4.70462900   3     140  H
   26.40706900   27.44268900    5.74169000   3     141  H
   27.70194900   28.63952200    5.95622600   3     142  H
   26.93655100   27.90937500    7.37059300   3     143  H
   23.49811700   23.88130800   11.80243000   3     144  H
   21.89228400   23.85381400   11.08216800   3     145  H
   24.30559000   25.45523400   10.17287800   3     146  H
   22.72271400   26.02104900   10.62992000   3     147  H
   22.92144200   25.16904200    9.08631300   3     148  H
   23.90614000   27.32052300    0.14813100   1     149  C
   23.62102300   28.26929500    0.01193900   1     150  C
   22.64868100   28.49606400   -0.04398500   1     151  C
   21.96145700   27.77406200    0.03628400   1     152  C
   20.98911500   28.00083100   -0.01963900   1     153  C
   20.30189300   27.27883800    0.06062800   1     154  C
   19.32955200   27.50560800    0.00470400   1     155  C
   18.64232700   26.78360500    0.08497300   1     156  C
   17.66998600   27.01037500    0.02905000   1     157  C
   16.98276100   26.28837200    0.10931800   1     158  C
   16.01042000   26.51514100    0.05339500   1     159  C
   15.32319700   25.79314900    0.13366200   1     160  C
   14.35085600   26.01991800    0.07773900   1     161  C
   13.66363100   25.29791500    0.15800700   1     162  C
   12.69129000   25.52468500    0.10208400   1     163  C
   12.00406800   24.80269200    0.18235100   1     164  C
   11.03172600   25.02946100    0.12642800   1     165  C
   10.34450200   24.30745900    0.20669600   1     166  C
    9.37216000   24.53422800    0.15077300   1     167  C
    8.68493800   23.81223500    0.23104000   1     168  C
    7.71259600   24.03900500    0.17511700   1     169  C
    7.02537200   23.31700200    0.25538500   1     170  C
    6.05303000   23.54377200    0.19946200   4     171  O
    7.31049200   22.36824000    0.39157600   1     172  C
    6.62326700   21.64623800    0.47184400   1     173  C
    5.65092500   21.87300700    0.41592100   1     174  C
    4.96370300   21.15101400    0.49618800   1     175  C
    3.99136200   21.37778300    0.44026500   1     176  C
    3.30413700   20.65578100    0.52053300   1     177  C
    2.33179600   20.88255000    0.46461000   1     178  C
    1.64457400   20.16055800    0.54487700   1     179  C
    0.67223200   20.38732700    0.48895400   1     180  C
   -0.01499200   19.66532400    0.56922200   4     181  O
   28.52164800   28.99665500    0.75175400   1     182  C
   27.16658400   28.60604400    1.24919900   1     183  C
   26.14629600   29.49111600    1.08759500   2     184  N
   24.90774300   29.17447500    1.52379600   1     185  C
   24.56868800   27.98403900    2.14505300   1     186  C
   25.60233300   27.05411900    2.32376300   1     187  C
   25.67635700   25.74598400    2.90123800   1     188  C
   24.73885300   24.88782600    3.51259600   1     189  C
   25.15501700   23.63676700    3.98301600   1     190  C
   26.48216900   23.23482300    3.85238100   1     191  C
   27.43042300   24.06643000    3.25008000   1     192  C
   26.99630600   25.31369600    2.78598300   1     193  C
   27.69622500   26.31927400    2.16368600   2     194  N
   28.68161000   26.27817000    1.94968500   3     195  H
   26.87820000   27.38642800    1.87160800   1     196  C
   28.50223600   29.99449300    0.30284700   3     197  H
   28.86347500   28.28502000   -0.00600900   3     198  H
   29.23770000   29.00548200    1.57922300   3     199  H
   24.15554900   29.94004800    1.35314700   3     200  H
   23.55562800   27.78868400    2.47291600   3     201  H
   23.70189300   25.19185100    3.61920500   3     202  H
   24.43384000   22.97375000    4.45466600   3     203  H
   26.78646800   22.25892500    4.22413700   3     204  H
   28.46345000   23.74968200    3.15062100   3     205  H

outcell: Unit cell vectors (Ang):
       38.018604    0.000000    0.000000
        0.000000   32.442533    0.000000
        0.000000    0.000000   23.863236

outcell: Cell vector modules (Ang)   :   38.018604   32.442533   23.863236
outcell: Cell angles (23,13,12) (deg):     90.0000     90.0000     90.0000
outcell: Cell volume (Ang**3)        :  29433.3881
<dSpData1D:S at geom step 1
  <sparsity:sparsity for geom step 1
    nrows_g=1953 nrows=1953 sparsity=.1510 nnzs=575863, refcount: 7>
  <dData1D:(new from dSpData1D) n=575863, refcount: 1>
refcount: 1>
new_DM -- step:     1
Initializing Density Matrix...
DM filled with atomic data:
<dSpData2D:DM initialized from atoms
  <sparsity:sparsity for geom step 1
    nrows_g=1953 nrows=1953 sparsity=.1510 nnzs=575863, refcount: 8>
  <dData2D:DM n=575863 m=2, refcount: 1>
refcount: 1>
     spin moment: S , {S} =  326.00000       0.0       0.0 326.00000
No. of atoms with KB's overlaping orbs in proc 0. Max # of overlaps:     205     195

InitMesh: MESH = 240 x 200 x 144 = 6912000
InitMesh: Mesh cutoff (required, used) =   100.000   100.639 Ry
New grid distribution [1]: sub = 2

stepf: Fermi-Dirac step function

siesta: Program's energy decomposition (eV):
siesta: Ebs     =     -7455.370818
siesta: Eions   =     32819.392483
siesta: Ena     =      6886.407405
siesta: Ekin    =     16642.396008
siesta: Enl     =     -2385.897339
siesta: Eso     =         0.000000
siesta: Edftu   =         0.000000
siesta: DEna    =     -1567.326973
siesta: DUscf   =       582.728541
siesta: DUext   =         0.000000
siesta: Exc     =     -7883.199139
siesta: eta*DQ  =         0.000000
siesta: Emadel  =         0.000000
siesta: Emeta   =         0.000000
siesta: Emolmec =         0.000000
siesta: Ekinion =         0.000000
siesta: Eharris =    -19529.284339
siesta: Etot    =    -20544.283981
siesta: FreeEng =    -20544.306974

        iscf     Eharris(eV)        E_KS(eV)     FreeEng(eV)     dDmax    Ef(eV) dHmax(eV)
   scf:    1   -19529.284339   -20544.283981   -20544.306974  0.989186 -6.132121 55.276340
     spin moment: S , {S} =   28.08206       0.0       0.0  28.08206
timer: Routine,Calls,Time,% = IterSCF        1      64.610  56.88
   scf:    2   -12257.236614   -18502.251175   -18502.286353  0.764679 -4.201125121.793466
     spin moment: S , {S} =   18.00661       0.0       0.0  18.00661
   scf:    3   -21495.179449   -20877.230996   -20877.235228  0.755667 -4.233320 23.245227
     spin moment: S , {S} =   12.00016       0.0       0.0  12.00016
   scf:    4   -20932.414245   -20933.910206   -20933.936182  0.334611 -3.893847 14.700084
     spin moment: S , {S} =    8.02469       0.0       0.0   8.02469
   scf:    5   -20947.508359   -20959.148543   -20959.198245  0.443042 -3.512790  8.682700
     spin moment: S , {S} =    7.05437       0.0       0.0   7.05437
   scf:    6   -20959.055026   -20965.399653   -20965.436353  0.292345 -3.092955  8.243301
     spin moment: S , {S} =    5.96209       0.0       0.0   5.96209
   scf:    7   -20962.674543   -20968.090166   -20968.092703  0.266386 -2.969864  6.430094
     spin moment: S , {S} =    4.01548       0.0       0.0   4.01548
   scf:    8   -20968.056820   -20969.972320   -20969.977014  0.207095 -2.863942  4.844850
     spin moment: S , {S} =    4.03525       0.0       0.0   4.03525
   scf:    9   -20970.798973   -20970.912883   -20970.919174  0.049944 -2.806805  2.126573
     spin moment: S , {S} =    4.00989       0.0       0.0   4.00989
   scf:   10   -20971.303763   -20971.212837   -20971.221251  0.022792 -2.747098  1.147679
     spin moment: S , {S} =    3.94659       0.0       0.0   3.94659
   scf:   11   -20970.611131   -20971.225908   -20971.261186  0.126143 -2.691085  2.605939
     spin moment: S , {S} =    2.73475       0.0       0.0   2.73475
   scf:   12   -20971.363386   -20971.588298   -20971.631503  0.060845 -2.694172  1.368332
     spin moment: S , {S} =    2.86057       0.0       0.0   2.86057
   scf:   13   -20971.554137   -20971.701254   -20971.737877  0.032688 -2.704298  1.188417
     spin moment: S , {S} =    2.53564       0.0       0.0   2.53564
   scf:   14   -20972.072530   -20971.910661   -20971.940093  0.040782 -2.665967  0.649617
     spin moment: S , {S} =    2.04740       0.0       0.0   2.04740
   scf:   15   -20970.705250   -20971.596186   -20971.611305  0.101467 -2.656639  2.251545
     spin moment: S , {S} =    1.99547       0.0       0.0   1.99547
   scf:   16   -20971.993869   -20971.990859   -20972.018439  0.079153 -2.625197  0.485301
     spin moment: S , {S} =    1.88966       0.0       0.0   1.88966
   scf:   17   -20971.927389   -20971.994992   -20972.033258  0.056576 -2.603545  0.963203
     spin moment: S , {S} =    1.60350       0.0       0.0   1.60350
   scf:   18   -20972.074508   -20972.045750   -20972.082816  0.010097 -2.609637  0.430919
     spin moment: S , {S} =    1.45980       0.0       0.0   1.45980
   scf:   19   -20971.996080   -20972.043068   -20972.078620  0.020077 -2.619218  0.611903
     spin moment: S , {S} =    1.33888       0.0       0.0   1.33888
   scf:   20   -20972.030820   -20972.072204   -20972.110242  0.052324 -2.614555  0.755070
     spin moment: S , {S} =    1.06648       0.0       0.0   1.06648
   scf:   21   -20972.082186   -20972.086162   -20972.123192  0.012998 -2.625507  0.572777
     spin moment: S , {S} =    1.01553       0.0       0.0   1.01553
   scf:   22   -20972.094038   -20972.096357   -20972.132911  0.024928 -2.623532  0.569483
     spin moment: S , {S} =    0.89712       0.0       0.0   0.89712
   scf:   23   -20972.153433   -20972.127864   -20972.157926  0.019932 -2.649634  0.264583
     spin moment: S , {S} =    0.46372       0.0       0.0   0.46372
   scf:   24   -20972.090350   -20972.121058   -20972.153136  0.006822 -2.657338  0.346667
     spin moment: S , {S} =    0.42280       0.0       0.0   0.42280
   scf:   25   -20972.111641   -20972.128511   -20972.158993  0.021831 -2.645058  0.394754
     spin moment: S , {S} =    0.49662       0.0       0.0   0.49662
   scf:   26   -20972.139771   -20972.134988   -20972.164777  0.005102 -2.650706  0.122571
     spin moment: S , {S} =    0.43020       0.0       0.0   0.43020
   scf:   27   -20972.138098   -20972.136540   -20972.165872  0.001353 -2.652186  0.074821
     spin moment: S , {S} =    0.39042       0.0       0.0   0.39042
   scf:   28   -20972.139318   -20972.137897   -20972.166679  0.001612 -2.653243  0.033648
     spin moment: S , {S} =    0.34239       0.0       0.0   0.34239
   scf:   29   -20972.139102   -20972.138507   -20972.166929  0.000961 -2.653250  0.020171
     spin moment: S , {S} =    0.32198       0.0       0.0   0.32198
   scf:   30   -20972.139450   -20972.138978   -20972.167101  0.001501 -2.653083  0.028456
     spin moment: S , {S} =    0.30140       0.0       0.0   0.30140
   scf:   31   -20972.138584   -20972.138815   -20972.167081  0.001552 -2.653367  0.026264
     spin moment: S , {S} =    0.30757       0.0       0.0   0.30757
   scf:   32   -20972.139487   -20972.139181   -20972.167137  0.001958 -2.652936  0.026098
     spin moment: S , {S} =    0.29848       0.0       0.0   0.29848
   scf:   33   -20972.139366   -20972.139274   -20972.167185  0.000198 -2.652933  0.018887
     spin moment: S , {S} =    0.29472       0.0       0.0   0.29472
   scf:   34   -20972.139698   -20972.139484   -20972.167253  0.000374 -2.652830  0.015414
     spin moment: S , {S} =    0.28668       0.0       0.0   0.28668
   scf:   35   -20972.139992   -20972.139737   -20972.167310  0.000379 -2.652715  0.012801
     spin moment: S , {S} =    0.27761       0.0       0.0   0.27761
   scf:   36   -20972.140225   -20972.139982   -20972.167365  0.000598 -2.652500  0.011328
     spin moment: S , {S} =    0.26637       0.0       0.0   0.26637
   scf:   37   -20972.139822   -20972.139906   -20972.167354  0.000389 -2.652628  0.007046
     spin moment: S , {S} =    0.27013       0.0       0.0   0.27013
   scf:   38   -20972.140181   -20972.140045   -20972.167367  0.000597 -2.652469  0.009846
     spin moment: S , {S} =    0.26598       0.0       0.0   0.26598
   scf:   39   -20972.140070   -20972.140058   -20972.167373  0.000123 -2.652486  0.006003
     spin moment: S , {S} =    0.26510       0.0       0.0   0.26510
   scf:   40   -20972.140125   -20972.140092   -20972.167380  0.000134 -2.652451  0.007161
     spin moment: S , {S} =    0.26315       0.0       0.0   0.26315
   scf:   41   -20972.140229   -20972.140161   -20972.167388  0.000108 -2.652429  0.005272
     spin moment: S , {S} =    0.26087       0.0       0.0   0.26087
   scf:   42   -20972.140359   -20972.140260   -20972.167401  0.000257 -2.652408  0.006244
     spin moment: S , {S} =    0.25587       0.0       0.0   0.25587
   scf:   43   -20972.140196   -20972.140229   -20972.167397  0.000177 -2.652394  0.003833
     spin moment: S , {S} =    0.25796       0.0       0.0   0.25796
   scf:   44   -20972.140454   -20972.140341   -20972.167407  0.000212 -2.652318  0.002558
     spin moment: S , {S} =    0.25370       0.0       0.0   0.25370
   scf:   45   -20972.140226   -20972.140284   -20972.167403  0.000092 -2.652353  0.002931
     spin moment: S , {S} =    0.25572       0.0       0.0   0.25572
   scf:   46   -20972.140290   -20972.140288   -20972.167405  0.000274 -2.652397  0.005814
     spin moment: S , {S} =    0.25484       0.0       0.0   0.25484
   scf:   47   -20972.140376   -20972.140333   -20972.167407  0.000287 -2.652329  0.002531
     spin moment: S , {S} =    0.25388       0.0       0.0   0.25388
   scf:   48   -20972.140342   -20972.140337   -20972.167407  0.000010 -2.652326  0.002302
     spin moment: S , {S} =    0.25368       0.0       0.0   0.25368
   scf:   49   -20972.140396   -20972.140367   -20972.167410  0.000053 -2.652312  0.002119
     spin moment: S , {S} =    0.25245       0.0       0.0   0.25245
   scf:   50   -20972.140503   -20972.140434   -20972.167414  0.000116 -2.652273  0.001600
     spin moment: S , {S} =    0.24982       0.0       0.0   0.24982
   scf:   51   -20972.140444   -20972.140439   -20972.167415  0.000041 -2.652261  0.001920
     spin moment: S , {S} =    0.24941       0.0       0.0   0.24941
   scf:   52   -20972.140435   -20972.140437   -20972.167415  0.000082 -2.652277  0.000933
     spin moment: S , {S} =    0.24951       0.0       0.0   0.24951

SCF Convergence by DM+H criterion
max |DM_out - DM_in|         :     0.0000819066
max |H_out - H_in|      (eV) :     0.0009331313
SCF cycle converged after 52 iterations

Using DM_out to compute the final energy and forces
No. of atoms with KB's overlaping orbs in proc 0. Max # of overlaps:     205     195

siesta: E_KS(eV) =           -20972.1404

siesta: E_KS - E_eggbox =    -20972.1404
     spin moment: S , {S} =    0.24951       0.0       0.0   0.24951

siesta: Atomic forces (eV/Ang):
     1   -0.626311   -0.962686    0.552345
     2   -0.457376   -0.611830    0.598543
     3    0.684165   -0.239321   -0.926199
     4    0.611457   -0.059761    1.210815
     5   -0.465204    2.562488   -0.395201
     6    0.761037    0.288049   -0.347051
     7    0.258378    0.491844   -0.317226
     8    0.220714   -0.629108   -0.310702
     9    0.022154    0.025445   -0.251059
    10   -0.788079    1.206024    0.572032
    11   -0.005562    0.765402   -0.124245
    12   -0.201305   -1.405353    0.026612
    13   -0.996328    1.468681    1.531481
    14    0.804516   -1.873247    0.890230
    15   -0.187063   -0.753052   -0.153583
    16   -0.488816   -0.749555   -0.248125
    17   -0.610639    0.570342   -0.422250
    18    0.653981   -0.302103    0.376599
    19   -0.248820   -0.564717    0.001092
    20    0.457767    0.641242   -0.194299
    21   -0.184747    0.908681    0.442086
    22    0.970775   -0.174630   -0.678067
    23   -0.166744   -0.451658    0.838782
    24   -0.714891    0.546904    0.527983
    25    0.731183   -0.383576   -0.581615
    26    1.213042    0.598967   -1.895688
    27   -0.271530   -0.822307    1.110567
    28   -1.144321   -0.366720    1.283172
    29   -0.393532   -0.813063    0.687534
    30    0.532528    1.207143   -0.443412
    31   -0.362655   -0.468558    0.904415
    32    0.197831    0.389157   -0.860902
    33   -0.405221   -0.749441   -0.106766
    34   -0.864835   -0.956328    0.418547
    35    0.580523    0.764530   -0.228885
    36    1.042685   -0.523427   -0.666510
    37   -0.267951    1.937098    0.833217
    38   -0.097073   -0.456832    0.683989
    39   -1.077316   -0.039972   -0.018462
    40    0.565635   -0.597321    0.028218
    41    0.636876    0.646437    0.129766
    42   -0.869448   -0.366768   -0.086428
    43   -0.014164    0.462291   -1.009286
    44    0.678744   -0.602694    0.205954
    45    0.354224    1.071970    0.268970
    46   -0.495128   -0.913776    0.072909
    47    0.453620    0.021325   -1.267233
    48   -0.462392    0.025953    1.270707
    49    0.540107   -0.053279   -1.403426
    50    0.432477    0.374063    1.131328
    51   -0.641011   -0.917078   -0.272704
    52   -0.419429    0.569650    0.443117
    53    0.077654    0.753383   -0.650526
    54    1.137688    0.367572    0.307606
    55   -1.131177   -0.223256   -0.196112
    56    0.520778    0.686020    0.099594
    57    0.702021   -0.554378    0.721899
    58   -0.676382    0.725871   -0.891576
    59   -0.380106   -0.698954    0.392810
    60   -0.441511    0.892002    0.379981
    61    0.505956   -0.501840    0.755515
    62    0.376404    0.659654   -0.349964
    63    0.156066   -0.710642   -1.007336
    64    0.142357    0.673005    0.964950
    65   -0.774039   -0.093655   -0.908887
    66   -0.304763   -0.129855    0.931537
    67    0.529802   -0.396090    0.144345
    68    0.424227   -0.102369   -1.152393
    69    0.028085   -0.435197    0.514239
    70    0.049448    0.278937    0.880445
    71   -0.625553   -0.118026    0.200882
    72   -0.337228    0.004521   -0.617359
    73   -0.401846   -0.096817    0.600331
    74    0.282689    0.354827   -0.617939
    75   -0.344312   -0.513353    0.466067
    76    0.713339    0.085610   -0.660916
    77   -0.037183   -0.678280   -0.275269
    78    0.679149   -0.033129   -0.516253
    79   -0.048640    0.388473   -0.666444
    80    0.288088    0.974046   -0.078828
    81    0.393575   -0.060326    0.623212
    82    0.441951   -0.168672   -0.448896
    83   -0.392767    0.835634   -0.266898
    84    0.556033   -0.533284    0.037793
    85   -0.067486   -0.245559   -0.623478
    86   -0.589837    0.349642    0.366839
    87    0.372981    0.712983   -0.165045
    88    0.555163   -0.523205    0.026357
    89    0.401105    0.120419    0.477443
    90   -0.208153   -0.728732    0.056611
    91    0.200897    0.669007   -0.141886
    92   -0.392316    0.022228    0.421918
    93   -0.392541   -0.142850   -0.676534
    94    0.453509   -0.752082   -0.559761
    95   -0.777087   -0.273552    0.262516
    96   -0.402338    0.656159    0.088136
    97    0.569312    0.190989   -0.219649
    98   -0.733919   -0.203528    0.235675
    99    0.264073    0.166242    0.551939
   100    0.805989    0.176593   -0.334427
   101   -0.320038   -0.223755   -0.802378
   102   -0.593980   -0.252061    0.235788
   103    0.387359    0.187364    0.621859
   104   -0.352549   -0.089153   -0.730999
   105    0.253860    0.259692    0.689547
   106   -0.119894    0.710773   -0.342399
   107    0.091942   -0.623845    0.377314
   108    0.584772    0.165652   -0.216257
   109   -0.285097   -0.293225   -0.582454
   110    0.340741    0.115306    0.618847
   111    0.307141   -0.479025   -0.275080
   112   -0.649898   -0.102161    0.224065
   113   -0.280297   -0.107532   -0.915235
   114   -0.374663   -0.023736    0.421880
   115    0.319767    0.245085    0.615152
   116    0.658760    0.194611   -0.664447
   117   -0.453074   -0.056244    0.482140
   118    0.338198   -0.512996    0.016991
   119   -0.404820   -0.065480   -0.585418
   120    0.159186    0.622145   -0.141968
   121   -0.811990   -0.256567   -0.241891
   122   -0.293133   -0.985858    0.479706
   123    0.626633    0.046461    0.237014
   124    0.267663    0.651441   -0.251184
   125   -0.145608   -0.524370    0.434694
   126    0.642298    0.059313    0.067265
   127   -0.176865   -0.109775   -0.589074
   128    0.178703   -0.055993   -0.648844
   129   -0.314856    0.640864    0.107499
   130    0.409206   -0.655971    0.071290
   131   -0.549170   -0.195730   -0.289404
   132   -0.282612    0.110968    0.734019
   133    0.502663    0.236206    0.612289
   134   -0.589024    0.294612    0.226749
   135   -0.530459   -0.052107   -0.661513
   136    0.620263   -0.937935   -0.086563
   137    0.432686    0.105175    0.619686
   138   -0.390669   -0.080188   -0.215940
   139    0.501405   -0.388090    0.034691
   140    0.184593    0.696665   -0.189382
   141   -0.602063   -0.179576   -0.574434
   142    0.199869    0.636044   -0.243382
   143   -0.364847    0.169770    0.590814
   144    0.350117   -0.185649    0.640439
   145   -0.628206   -0.241610    0.216639
   146    0.556859   -0.073826   -0.270448
   147   -0.595463    0.446825    0.357591
   148   -0.060434    0.009692   -0.659254
   149   17.463586  -46.530135    6.134171
   150   43.123227   37.361806   -4.827341
   151   -8.646438   40.189627   -6.226965
   152    9.932595  -30.425029    4.395607
   153   -8.951438   31.601894   -4.430674
   154    9.642681  -30.677542    4.390531
   155   -9.373117   30.492260   -4.440159
   156    9.503251  -30.390759    4.403238
   157   -9.400803   30.473269   -4.446695
   158    9.356242  -30.460452    4.438898
   159   -9.349093   30.477937   -4.446754
   160    9.369196  -30.455568    4.444881
   161   -9.291976   30.483056   -4.412845
   162    9.199686  -30.488835    4.414478
   163   -9.216106   30.499777   -4.369850
   164    9.123997  -30.508002    4.374400
   165   -9.038943   30.640336   -4.360676
   166    8.751050  -30.941000    4.381156
   167  -10.211244   31.110800   -4.518029
   168    7.388842  -33.045806    4.744426
   169   -9.253823   43.801611   -6.036820
   170  -15.271861    7.964632   -1.680490
   171  -55.266128    8.320499   -7.429281
   172   50.545899  -26.316954    4.662347
   173   25.810497  -41.754209    6.479382
   174   -9.128320   38.915323   -5.467056
   175   12.532064  -32.531961    4.705720
   176   -9.426724   30.932898   -4.418876
   177    9.622125  -30.166595    4.322824
   178  -10.653727   30.881023   -4.422465
   179   13.275831  -31.559845    4.582603
   180  -31.563397   20.181755   -3.546752
   181  -33.153074  -25.799505    0.155285
   182   -0.750094   -0.344522    0.339256
   183   -0.984939    1.034348   -0.284020
   184    0.190258    0.203859    0.603229
   185    2.148970    1.184902   -0.058704
   186    0.654690   -1.003852    0.889680
   187   -1.218744    0.360901    0.647845
   188   -1.585236   -0.322321    0.613291
   189    0.583677   -0.119470   -0.083443
   190   -0.278838    0.767885   -0.222856
   191    0.435440    0.362010   -0.284983
   192   -0.480329    0.059322    0.113438
   193    0.945672   -0.268291   -0.349302
   194    0.954186   -0.651364   -0.512080
   195    0.612205   -0.018099   -0.191958
[...]
Number of DMs in history: 1
 DM extrapolation coefficients: 
1   1.00000
New DM after history re-use:
<dSpData2D:SpM extrapolated using coords
  <sparsity:sparsity for geom step 3
    nrows_g=1953 nrows=1953 sparsity=.1509 nnzs=575609, refcount: 9>
  <dData2D:(temp array for extrapolation) n=575609 m=2, refcount: 1>
refcount: 1>
     spin moment: S , {S} =    1.55811       0.0       0.0   1.55811
Note: For starting DM, Qtot, Tr[D*S] =        562.00000000        560.01653433
No. of atoms with KB's overlaping orbs in proc 0. Max # of overlaps:     205     195

InitMesh: MESH = 240 x 200 x 144 = 6912000
InitMesh: Mesh cutoff (required, used) =   100.000   100.639 Ry
New grid distribution [1]: sub = 2

        iscf     Eharris(eV)        E_KS(eV)     FreeEng(eV)     dDmax    Ef(eV) dHmax(eV)
   scf:    1   -18629.200363   -20241.426672   -20241.492422  0.683866 -4.014543 75.927979
     spin moment: S , {S} =    0.80533       0.0       0.0   0.80533
   scf:    2   276157.236797    75508.281563    75508.164402  4.505389-21.083108884.470577
     spin moment: S , {S} =    0.00845       0.0       0.0   0.00845
   scf:    3   -26953.652943   -18813.111439   -18813.193803  4.494220 -1.929700171.261976
     spin moment: S , {S} =    1.20730       0.0       0.0   1.20730
   scf:    4   -21721.568943   -20800.037917   -20800.054817  0.474240 -2.073937 53.189746
     spin moment: S , {S} =    0.08264       0.0       0.0   0.08264
   scf:    5   -19582.474942   -20658.994273   -20659.049640  0.717426 -3.330515 56.099751
     spin moment: S , {S} =    0.54175       0.0       0.0   0.54175
   scf:    6   -20850.085209   -20990.778414   -20990.855156  0.626109 -3.212196 24.853070
     spin moment: S , {S} =    1.00042       0.0       0.0   1.00042
   scf:    7   -20991.713073   -21018.018286   -21018.067481  0.436517 -3.121104 13.911938
     spin moment: S , {S} =    0.56012       0.0       0.0   0.56012
   scf:    8   -20384.694953   -20846.110397   -20846.120567  0.677327 -3.027888 51.144679
     spin moment: S , {S} =    0.05445       0.0       0.0   0.05445
   scf:    9   -20967.533043   -21020.068325   -21020.094812  0.643748 -3.126411 11.262417
     spin moment: S , {S} =    0.22482       0.0       0.0   0.22482
   scf:   10   -21006.488912   -21024.528972   -21024.581208  0.272876 -3.070378 10.951074
     spin moment: S , {S} =    0.83972       0.0       0.0   0.83972
   scf:   11   -20912.901632   -20999.796285   -20999.865304  0.424277 -3.209343 24.022501
     spin moment: S , {S} =    1.07339       0.0       0.0   1.07339
   scf:   12   -20902.137379   -20994.695475   -20994.705228  0.464900 -3.195909 24.727679
     spin moment: S , {S} =    0.04628       0.0       0.0   0.04628
   scf:   13   -20898.793851   -20994.783713   -20994.814441  0.490579 -3.073642 25.307073
     spin moment: S , {S} =    0.29088       0.0       0.0   0.29088
   scf:   14   -20729.685704   -20944.402459   -20944.413249  0.565203 -3.512962 39.177826
     spin moment: S , {S} =    0.07135       0.0       0.0   0.07135
   scf:   15   -20780.022185   -20959.413064   -20959.417070  0.558702 -3.321239 34.268367
     spin moment: S , {S} =    0.02024       0.0       0.0   0.02024
   scf:   16   -20282.204454   -20812.462081   -20812.505101  0.627672 -3.481870 57.041017
     spin moment: S , {S} =    0.99396       0.0       0.0   0.99396
   scf:   17   -20620.770687   -20920.808514   -20920.809542  0.664664 -3.264198 40.071211
     spin moment: S , {S} =    0.00328       0.0       0.0   0.00328
   scf:   18   -20458.010666   -20861.886103   -20861.888942  0.609255 -3.690859 50.728997
     spin moment: S , {S} =    0.00356       0.0       0.0   0.00356
   scf:   19   -20144.233096   -20784.040101   -20784.073477  0.777263 -3.643731 59.820558
     spin moment: S , {S} =    0.14534       0.0       0.0   0.14534
   scf:   20   -20126.426411   -20772.713157   -20772.713728  0.629115 -3.329857 61.803543
     spin moment: S , {S} =    0.00163       0.0       0.0   0.00163
   scf:   21   -20304.876202   -20817.707350   -20817.765677  0.648308 -3.164942 52.117230
     spin moment: S , {S} =    0.14067       0.0       0.0   0.14067
   scf:   22   -19725.725119   -20672.828883   -20672.834559  0.679907 -3.595655 67.466484
     spin moment: S , {S} =    0.00199       0.0       0.0   0.00199
   scf:   23   -19992.324808   -20726.487972   -20726.497902  0.740432 -3.743760 65.563076
     spin moment: S , {S} =    0.02643       0.0       0.0   0.02643
   scf:   24   -19955.616197   -20744.300064   -20744.300191  0.661373 -3.259574 65.558535
     spin moment: S , {S} =    0.00016       0.0       0.0   0.00016
   scf:   25   -20062.943118   -20746.376182   -20746.382411  0.629569 -3.224829 55.134104
     spin moment: S , {S} =    0.01784       0.0       0.0   0.01784
   scf:   26   -19857.549845   -20705.634012   -20705.638346  0.710045 -3.586215 63.239100
     spin moment: S , {S} =    0.00018       0.0       0.0   0.00018
   scf:   27   -19445.371357   -20587.241656   -20587.242773  0.744756 -3.660165 72.889101
     spin moment: S , {S} =    0.00116       0.0       0.0   0.00116
   scf:   28   -19897.373365   -20726.236158   -20726.239007  0.687996 -3.181351 65.716492
     spin moment: S , {S} =    0.00198       0.0       0.0   0.00198
   scf:   29   -20170.590930   -20777.958097   -20778.002184  0.622207 -3.313655 52.176126
     spin moment: S , {S} =    0.17970       0.0       0.0   0.17970
   scf:   30   -19247.418089   -20542.510124   -20542.510153  0.717178 -3.806084 74.595089
     spin moment: S , {S} =    0.00000       0.0       0.0   0.00000
   scf:   31   -19777.488107   -20655.127830   -20655.179630  0.741269 -3.794564 67.478656
     spin moment: S , {S} =    0.06167       0.0       0.0   0.06167
   scf:   32   -19900.917465   -20735.959460   -20735.959529  0.679576 -3.283121 66.225224
     spin moment: S , {S} =    0.00003       0.0       0.0   0.00003
   scf:   33   -19921.985362   -20717.262786   -20717.318547  0.689837 -3.469003 58.357828
     spin moment: S , {S} =    0.03903       0.0       0.0   0.03903
   scf:   34   -19874.479098   -20697.151964   -20697.152820  0.689812 -3.819821 60.899054
     spin moment: S , {S} =    0.00018       0.0       0.0   0.00018
   scf:   35   -19089.442841   -20484.646588   -20484.729434  0.741686 -3.702550 74.155415
     spin moment: S , {S} =    0.07173       0.0       0.0   0.07173
   scf:   36   -19790.470662   -20680.847369   -20680.849314  0.676163 -2.924754 67.459109
     spin moment: S , {S} =    0.00105       0.0       0.0   0.00105
   scf:   37   -20188.139349   -20787.003957   -20787.041237  0.664527 -3.396316 53.718155
     spin moment: S , {S} =    0.08692       0.0       0.0   0.08692
   scf:   38   -18799.216774   -20401.825264   -20401.825274  0.706532 -3.739037 78.178612
     spin moment: S , {S} =    0.00000       0.0       0.0   0.00000
   scf:   39   -19651.901874   -20604.579987   -20604.580497  0.766996 -3.709463 67.166897
     spin moment: S , {S} =    0.00002       0.0       0.0   0.00002
   scf:   40   -19881.289936   -20716.559383   -20716.559639  0.690319 -3.118473 65.316991
     spin moment: S , {S} =    0.00010       0.0       0.0   0.00010
   scf:   41   -19574.095238   -20638.694529   -20638.732271  0.667382 -3.480507 57.033324
     spin moment: S , {S} =    0.00989       0.0       0.0   0.00989
   scf:   42   -19811.271636   -20660.171941   -20660.197315  0.682317 -3.955671 64.206854
     spin moment: S , {S} =    0.00472       0.0       0.0   0.00472
   scf:   43   -19347.071415   -20540.663157   -20540.706820  0.747097 -3.780954 72.569734
     spin moment: S , {S} =    0.01494       0.0       0.0   0.01494
   scf:   44   -19436.519004   -20584.670739   -20584.680884  0.640508 -2.570084 73.831152
     spin moment: S , {S} =    0.00092       0.0       0.0   0.00092
   scf:   45   -20233.284081   -20788.170648   -20788.188075  0.650260 -3.453127 53.930592
     spin moment: S , {S} =    0.01524       0.0       0.0   0.01524
   scf:   46   -18837.395304   -20405.980337   -20406.031269  0.706407 -3.779542 78.904706
     spin moment: S , {S} =   -0.00202       0.0       0.0  -0.00202
   scf:   47   -19508.547137   -20571.905148   -20571.905649  0.758434 -3.696922 70.166011
     spin moment: S , {S} =    0.00007       0.0       0.0   0.00007
   scf:   48   -19901.638920   -20715.455550   -20715.456111  0.683377 -3.092996 64.673554
     spin moment: S , {S} =    0.00008       0.0       0.0   0.00008
   scf:   49   -19500.617395   -20617.896710   -20617.905919  0.677508 -3.442432 56.257771
     spin moment: S , {S} =    0.00022       0.0       0.0   0.00022
   scf:   50   -19657.345871   -20616.964211   -20617.027004  0.702093 -3.928442 66.891746
     spin moment: S , {S} =    0.01040       0.0       0.0   0.01040
   scf:   51   -19439.558913   -20564.428927   -20564.465355  0.748125 -3.797257 71.389108
     spin moment: S , {S} =    0.00321       0.0       0.0   0.00321
   scf:   52   -19341.197164   -20559.142109   -20559.147756  0.631088 -2.504106 75.415439
     spin moment: S , {S} =    0.00011       0.0       0.0   0.00011
   scf:   53   -20220.172769   -20779.978774   -20779.996213  0.657294 -3.471023 54.830735
     spin moment: S , {S} =    0.00144       0.0       0.0   0.00144
   scf:   54   -18846.199952   -20395.343009   -20395.394001  0.683703 -3.798881 82.159587
     spin moment: S , {S} =   -0.00257       0.0       0.0  -0.00257
   scf:   55   -19209.412105   -20509.010605   -20509.012093  0.751884 -3.642005 76.029104
     spin moment: S , {S} =   -0.00001       0.0       0.0  -0.00001
   scf:   56   -19936.277755   -20720.664635   -20720.667262  0.691793 -3.124504 62.711846
     spin moment: S , {S} =    0.00007       0.0       0.0   0.00007
   scf:   57   -19454.145654   -20613.298519   -20613.331637  0.710833 -3.472304 55.015720
     spin moment: S , {S} =    0.00075       0.0       0.0   0.00075
   scf:   58   -19269.457447   -20513.927509   -20513.938716  0.711826 -3.943509 71.899944
     spin moment: S , {S} =    0.00098       0.0       0.0   0.00098
   scf:   59   -19819.608827   -20662.794419   -20662.800600  0.749580 -3.766057 65.037165
     spin moment: S , {S} =   -0.00003       0.0       0.0  -0.00003
   scf:   60   -19234.316017   -20530.703483   -20530.713055  0.636832 -2.488140 77.057224
     spin moment: S , {S} =    0.00014       0.0       0.0   0.00014
   scf:   61   -20167.821763   -20760.054205   -20760.098490  0.651711 -3.433024 57.149989
     spin moment: S , {S} =    0.00178       0.0       0.0   0.00178
   scf:   62   -19287.313416   -20501.678763   -20501.682729  0.662169 -3.740968 76.574453
     spin moment: S , {S} =    0.00002       0.0       0.0   0.00002
   scf:   63   -18533.828221   -20344.265115   -20344.351131  0.745105 -3.612359 83.037950
     spin moment: S , {S} =    0.01083       0.0       0.0   0.01083
   scf:   64   -19834.078235   -20656.032417   -20656.049859  0.691753 -3.201646 64.418377
     spin moment: S , {S} =    0.00007       0.0       0.0   0.00007
   scf:   65   -19709.561590   -20659.830699   -20659.855799  0.687516 -3.516921 63.085973
     spin moment: S , {S} =    0.00120       0.0       0.0   0.00120
   scf:   66   -18755.030760   -20380.295993   -20380.296067  0.687950 -3.617119 80.217147
     spin moment: S , {S} =    0.00000       0.0       0.0   0.00000
   scf:   67   -19242.465036   -20457.419473   -20457.476228  0.751243 -3.883430 70.431525
     spin moment: S , {S} =    0.00581       0.0       0.0   0.00581
   scf:   68   -19487.235721   -20588.853885   -20588.858884  0.657470 -2.910049 70.405676
     spin moment: S , {S} =    0.00025       0.0       0.0   0.00025
   scf:   69   -19528.981260   -20603.938283   -20603.993212  0.680776 -3.369477 77.404302
     spin moment: S , {S} =   -0.00149       0.0       0.0  -0.00149
   scf:   70   -19081.534116   -20435.772397   -20435.776275  0.703952 -3.755976 80.586834
     spin moment: S , {S} =    0.00002       0.0       0.0   0.00002
   scf:   71   -18138.415909   -20180.259378   -20180.260512  0.746492 -3.955873 89.710316
     spin moment: S , {S} =    0.00003       0.0       0.0   0.00003
   scf:   72   -19329.792014   -20569.583683   -20569.584309  0.765267 -3.106625 74.303084
     spin moment: S , {S} =    0.00000       0.0       0.0   0.00000
   scf:   73   -19661.961226   -20649.518404   -20649.522280  0.672950 -3.234374 69.216932
     spin moment: S , {S} =   -0.00004       0.0       0.0  -0.00004
   scf:   74   -18583.770141   -20328.179451   -20328.223782  0.702188 -3.629909 87.094085
     spin moment: S , {S} =   -0.00032       0.0       0.0  -0.00032
   scf:   75   -19047.349928   -20434.142659   -20434.151767  0.742622 -3.929745 73.873258
     spin moment: S , {S} =    0.00005       0.0       0.0   0.00005
   scf:   76   -19546.485844   -20617.598788   -20617.599188  0.678909 -3.052069 68.279213
     spin moment: S , {S} =    0.00000       0.0       0.0   0.00000
   scf:   77   -19465.135108   -20601.796215   -20601.815832  0.666321 -3.308427 72.523519
     spin moment: S , {S} =   -0.00008       0.0       0.0  -0.00008
   scf:   78   -19023.679866   -20429.348466   -20429.348969  0.714535 -3.689911 79.034763
     spin moment: S , {S} =   -0.00000       0.0       0.0  -0.00000
   scf:   79   -18882.651469   -20402.502291   -20402.505707  0.732337 -4.066322 77.167967
     spin moment: S , {S} =    0.00001       0.0       0.0   0.00001
   scf:   80   -19442.626308   -20591.982193   -20591.984354  0.683453 -2.919970 71.236294
     spin moment: S , {S} =    0.00001       0.0       0.0   0.00001
   scf:   81   -19662.662791   -20646.917733   -20646.921262  0.674981 -3.258141 68.594213
     spin moment: S , {S} =   -0.00002       0.0       0.0  -0.00002
   scf:   82   -18841.918063   -20386.902977   -20386.928963  0.709880 -3.712212 83.319708
     spin moment: S , {S} =   -0.00002       0.0       0.0  -0.00002
   scf:   83   -18869.769705   -20399.582578   -20399.586639  0.734274 -3.976778 76.301797
     spin moment: S , {S} =   -0.00000       0.0       0.0  -0.00000
   scf:   84   -19529.792399   -20610.338313   -20610.338782  0.682625 -3.035691 69.311556
     spin moment: S , {S} =    0.00000       0.0       0.0   0.00000
   scf:   85   -19551.187646   -20622.292853   -20622.294447  0.671339 -3.268804 70.223952
     spin moment: S , {S} =   -0.00000       0.0       0.0  -0.00000
   scf:   86   -18924.787350   -20408.453757   -20408.454565  0.709328 -3.669173 80.837015
     spin moment: S , {S} =   -0.00000       0.0       0.0  -0.00000
   scf:   87   -18903.531226   -20407.959604   -20407.963179  0.733667 -4.025601 76.125384
     spin moment: S , {S} =   -0.00000       0.0       0.0  -0.00000
   scf:   88   -19480.801858   -20598.301153   -20598.301879  0.681008 -2.976473 70.695069
     spin moment: S , {S} =    0.00000       0.0       0.0   0.00000
   scf:   89   -19612.002034   -20635.992207   -20635.995327  0.673533 -3.264556 69.467803
     spin moment: S , {S} =   -0.00001       0.0       0.0  -0.00001
   scf:   90   -18876.678979   -20396.223260   -20396.232719  0.710467 -3.700876 82.261263
     spin moment: S , {S} =   -0.00001       0.0       0.0  -0.00001
   scf:   91   -18894.113665   -20405.940532   -20405.944602  0.733128 -4.000052 75.836876
     spin moment: S , {S} =   -0.00000       0.0       0.0  -0.00000
   scf:   92   -19507.954526   -20605.448502   -20605.449099  0.679933 -3.013357 69.790064
     spin moment: S , {S} =    0.00000       0.0       0.0   0.00000
   scf:   93   -19579.409714   -20628.653097   -20628.655863  0.671991 -3.269900 69.957073
     spin moment: S , {S} =   -0.00001       0.0       0.0  -0.00001
   scf:   94   -18909.420996   -20404.737001   -20404.739562  0.708751 -3.687005 81.334125
     spin moment: S , {S} =   -0.00000       0.0       0.0  -0.00000
   scf:   95   -18897.071511   -20406.467259   -20406.470983  0.733374 -4.017625 76.021238
     spin moment: S , {S} =   -0.00000       0.0       0.0  -0.00000
   scf:   96   -19494.039504   -20601.978296   -20601.978979  0.680391 -2.995144 70.209020
     spin moment: S , {S} =    0.00000       0.0       0.0   0.00000
   scf:   97   -19597.885133   -20632.817715   -20632.820736  0.672800 -3.267149 69.696941
     spin moment: S , {S} =   -0.00000       0.0       0.0  -0.00000
   scf:   98   -18892.785440   -20400.505888   -20400.510707  0.709568 -3.692830 81.788424
     spin moment: S , {S} =   -0.00000       0.0       0.0  -0.00000
   scf:   99   -18895.177302   -20406.003570   -20406.007438  0.733276 -4.009548 75.912847
     spin moment: S , {S} =   -0.00000       0.0       0.0  -0.00000
   scf:  100   -19502.092187   -20603.935461   -20603.936086  0.680038 -3.006049 69.963315
     spin moment: S , {S} =    0.00000       0.0       0.0   0.00000
SCF_NOT_CONV: SCF did not converge in maximum number of steps (required).
Geom step, scf iteration, dmax:    3   100     5.142168

timer: Elapsed wall time (sec) =    9931.021
timer: CPU execution times (sec):

Routine            Calls   Time/call    Tot.time        %
siesta                 1    9928.101    9928.101   100.00
Setup                  1       0.439       0.439     0.00
bands                  2       0.000       0.001     0.00
KSV_init               1       0.000       0.000     0.00
IterGeom               3    3309.221    9927.662   100.00
state_init             3       1.968       5.904     0.06
hsparse                3       0.075       0.224     0.00
overlap                3       1.757       5.270     0.05
Setup_H0               3      19.535      58.604     0.59
naefs                  5       0.002       0.011     0.00
MolMec                 5       0.000       0.000     0.00
kinefsm                5       1.122       5.611     0.06
nlefsm                 5       7.204      36.022     0.36
DHSCF_Init             3       6.639      19.918     0.20
DHSCF1                 3       0.032       0.095     0.00
INITMESH               3       0.000       0.000     0.00
DHSCF2                 3       6.607      19.822     0.20
REMESH                 3       0.781       2.344     0.02
REORD                855       0.015      12.843     0.13
PHION                  3       4.384      13.153     0.13
COMM_BSC            1641       0.012      19.881     0.20
POISON               207       0.805     166.617     1.68
fft                  414       0.323     133.847     1.35
IterSCF              199      49.408    9832.110    99.03
setup_H              202       5.304    1071.465    10.79
DHSCF                204       5.369    1095.213    11.03
DHSCF3               204       5.284    1077.850    10.86
rhoofd               204       1.759     358.748     3.61
XC                   204       0.751     153.109     1.54
GXC-CellXC           204       0.609     124.204     1.25
cellXC               204       0.609     124.201     1.25
vmat                 204       1.496     305.147     3.07
compute_dm           199      43.971    8750.221    88.14
diagon               199      43.963    8748.597    88.12
r-eigvec             398      20.779    8269.947    83.30
r-buildHS            398       0.010       3.881     0.04
rdiag                398      20.769    8266.063    83.26
rdiag1               398       0.913     363.540     3.66
rdiag2               398       1.297     516.095     5.20
rdiag3               398      12.593    5011.840    50.48
rdiag4               398       5.939    2363.603    23.81
r-buildD             199       2.344     466.514     4.70
MIXER                197       0.027       5.223     0.05
PostSCF                2      15.490      30.980     0.31
DHSCF4                 2       8.680      17.361     0.17
dfscf                  2       7.911      15.823     0.16
overfsm                2       0.201       0.403     0.00
state_analysis         2       0.011       0.023     0.00
siesta_move            2       0.005       0.009     0.00
  
ABNORMAL_TERMINATION
Stopping Program from Node:    0
