Siesta Version  : master-post-4.1-266
Architecture    : unknown
Compiler version: GNU Fortran (Ubuntu 9.3.0-17ubuntu1~20.04) 9.3.0
Compiler flags  : gfortran -O2 -fPIC -ftree-vectorize
PP flags        : -DFC_HAVE_ABORT -DSIESTA__DIAG_2STAGE -DSIESTA__MRRR
Libraries       : libsiestaLAPACK.a libsiestaBLAS.a
Directory       : /home/colinw/siesta/mixture_simulations/asphaltene3hydrocarbon1phytol
SERIAL version

* Running in serial mode
>> Start of run:  14-DEC-2020  13:30:02

                           ***********************       
                           *  WELCOME TO SIESTA  *       
                           ***********************       

reinit: Reading from standard input
reinit: Dumped input in INPUT_TMP.21273
************************** Dump of input data file ****************************
NumberOfAtoms 178
SpinPolarized yes
#FixSpin .true.
#TotalSpin
NumberOfSpecies 4
MD.TypeOfRun  nose
MD.FinalTimeStep 10
MD.LengthTimeStep 1.0  fs
MD.InitialTemperature 300 K
MD.TargetTemperature  300  K
%block ChemicalSpeciesLabel
1  6  C
2  7  N
3  8  O
4  1  H
%endblock ChemicalSpeciesLabel
PAO.BasisSize dzp
 PAO.EnergyShift 0.02 Ry
MeshCutoff          100 Ry
MaxSCFIterations    100
DM.NumberPulay       3
DM.Tolerance         1e-3
WriteDenchar	.true.
%block ProjectedDensityOfStates
-10.0 10.0 0.200 500 eV
%endblock ProjectedDensityOfStates
NetCharge 0.00
%block BandLines
1  1.000  1.000 1.000  L
20 0.00   0.00   0.00  \Gamma
25 2.00   0.000  0.00  X
30 2.00   2.00   2.00  \Gamma
%endblock BandLines
LongOutput .true.
WriteCoorXmol .true.
LatticeConstant 1 Ang
%block LatticeVectors
  27.860523 0.0 0.0
  0.0 28.086015 0.0
  0.0 0.0 36.32509
%endblock LatticeVectors
#UseSaveData .true.
%block kgrid_Monkhorst_Pack
1 0 0 0.0
 0 1 0 0.0
 0 0 1 0.0
%endblock kgrid_Monkhorst_Pack
WriteMDXmol .true.
AtomicCoordinatesFormat Ang
%block AtomicCoordinatesAndAtomicSpecies
13.493237  16.567370 10.302069  1
12.102287  16.287892 10.244979  1
11.189256  17.351013 10.482139  1
11.620251  18.640386 10.799381  1
12.990954  18.849747 10.957358  1
13.972194  17.848151 10.699773  1
14.430346  15.552813 9.966352  1
13.931188  14.256547 9.702735  1
12.621545  13.979926 9.701085  2
11.712710  14.963283 9.934129  1
15.385139  18.084751 10.816935  1
16.308239  17.084931 10.402043  1
15.816461  15.821254 9.935592  1
16.668158  14.780409 9.477389  1
16.207230  13.482227 9.253451  1
14.849199  13.219806 9.484919  1
17.208963  12.372961 8.932353  1
16.694039  10.958049 9.288328  1
15.530380  10.952423 10.290552  1
14.398565  11.782491 9.650737  1
15.929181  19.285728 11.362929  1
17.301732  19.520099 11.540923  1
18.178483  18.545900 11.094738  1
17.694812  17.367635 10.528828  1
10.266689  14.501122 9.805057  1
9.844759  13.419508 10.828344  1
9.957676  13.934275 12.263545  1
8.402509  12.947247 10.591976  1
10.630432  19.790329 10.932682  1
10.424620  20.579780 9.617283  1
9.426202  21.764720 9.717885  1
9.875556  22.843160 10.706138  1
9.178428  22.415941 8.346736  1
15.957182  11.443378 11.698836  1
14.824695  11.424158 12.735018  1
15.265500  11.947292 14.106290  1
16.383069  11.125985 14.728803  1
17.646265  12.439911 7.449173  1
18.777515  11.477779 7.096630  1
19.520467  18.732114 11.254767  3
17.772959  20.776986 12.236400  1
17.975334  21.956899 11.284252  1
18.441155  23.207965 12.019740  1
10.119338  17.184749 10.420750  4
13.299332  19.844837 11.267073  4
17.732177  14.945059 9.359385  4
18.092335  12.552612 9.561786  4
17.526925  10.342549 9.652316  4
16.338894  10.458720 8.375561  4
15.185394  9.915295 10.394482  4
13.515058  11.713362 10.292691  4
14.118813  11.372027 8.674327  4
15.261779  20.068045 11.724485  4
18.430583  16.632381 10.218434  4
10.151378  14.096071 8.789793  4
9.562968  15.334242 9.858320  4
10.499554  12.545441 10.719092  4
9.304969  14.799896 12.420738  4
10.983177  14.228889 12.502165  4
9.663923  13.156358 12.976378  4
7.685638  13.767183 10.713559  4
8.132359  12.166745 11.314140  4
8.273762  12.525795 9.590120  4
10.979230  20.454970 11.731905  4
9.665787  19.392044 11.269040  4
10.052025  19.883733 8.853903  4
11.391558  20.947642 9.249936  4
8.461780  21.374386 10.065245  4
10.879435  23.212138 10.471705  4
9.875056  22.461864 11.730778  4
9.191670  23.700448 10.684460  4
10.106618  22.772531 7.887045  4
8.505551  23.278226 8.440116  4
8.702833  21.711513 7.656567  4
16.363739  12.459898 11.664807  4
16.780333  10.807083 12.042067  4
14.432051  10.405963 12.837062  4
13.993580  12.054908 12.399691  4
14.401177  11.939469 14.781603  4
15.586725  12.992262 14.018883  4
16.104576  10.069260 14.787762  4
16.598335  11.482233 15.740430  4
17.308270  11.208669 14.151020  4
17.972073  13.455562 7.192506  4
16.785694  12.222943 6.802946  4
19.702500  11.756275 7.610978  4
18.971223  11.503852 6.018677  4
18.536646  10.443513 7.358879  4
19.985489  17.918435 10.997088  4
18.699127  20.571213 12.787342  4
17.036671  21.046629 13.005283  4
17.036526  22.182548 10.765061  4
18.712864  21.700390 10.514883  4
17.737175  23.491387 12.809086  4
18.519860  24.048720 11.322447  4
19.425117  23.056956 12.475737  4
0.991655  28.865198 26.794678  1
0.980276  29.674106 27.382510  1
1.828367  30.001310 27.799248  1
2.687841  29.519613 27.628159  1
3.535937  29.846824 28.044903  1
4.395412  29.365127 27.873814  1
5.243502  29.692331 28.290551  1
6.102977  29.210634 28.119462  1
6.951072  29.537845 28.536206  1
7.810547  29.056148 28.365117  1
8.658638  29.383353 28.781854  1
9.518112  28.901656 28.610766  1
10.366208  29.228867 29.027509  1
11.225683  28.747170 28.856420  1
12.073773  29.074374 29.273158  1
12.933248  28.592677 29.102069  1
13.781343  28.919888 29.518812  1
14.640818  28.438191 29.347723  1
15.488909  28.765396 29.764461  1
16.348383  28.283699 29.593372  1
17.196479  28.610910 30.010115  1
18.055954  28.129213 29.839026  1
1.583471  21.810633 8.395877  1
2.323874  20.988343 7.400070  1
2.359450  19.647865 7.324224  1
1.658333  18.728484 8.300760  1
3.161701  18.940565 6.270027  1
3.031667  19.404692 4.811794  1
3.728262  18.467189 3.805848  1
3.071091  17.083527 3.521267  1
3.974611  16.299832 2.564736  1
2.750070  16.249091 4.775874  1
2.250079  14.811186 4.539491  1
1.993500  14.154320 5.903974  1
1.450124  12.713437 5.854580  1
2.452793  11.756576 5.202837  1
0.963227  12.176577 7.230731  1
1.996563  12.022131 8.367528  1
2.549539  13.337871 8.917425  1
3.697157  13.223471 9.931248  1
4.870588  12.406726 9.382434  1
4.183988  14.638758 10.274546  1
1.190208  22.708498 7.911680  4
2.263906  22.113645 9.196050  4
0.737496  21.278013 8.829731  4
2.897412  21.565576 6.668798  4
1.520627  19.185878 9.283825  4
2.235497  17.813370 8.469276  4
0.674773  18.441303 7.907765  4
2.825885  17.920262 6.343811  4
4.218327  18.903627 6.562704  4
3.504202  20.392301 4.718537  4
1.981651  19.535070 4.526411  4
4.776428  18.339992 4.103414  4
3.761925  19.005022 2.845127  4
2.124825  17.277309 3.000105  4
4.902858  15.995862 3.055386  4
4.232699  16.903015 1.685025  4
3.468397  15.402102 2.198009  4
1.904686  16.729625 5.279218  4
3.617562  16.217566 5.434442  4
3.018620  14.237744 4.008097  4
1.339242  14.816370 3.932028  4
1.331032  14.781457 6.504215  4
2.984080  14.138456 6.355139  4
0.554395  12.738296 5.214275  4
2.663321  10.881707 5.824837  4
3.410837  12.238638 4.987666  4
2.049839  11.386379 4.253642  4
0.537151  11.179342 7.051202  4
0.124966  12.789556 7.585909  4
2.802488  11.364063 8.032210  4
1.502684  11.497342 9.197004  4
1.727663  13.932953 9.330429  4
2.971170  13.934684 8.122505  4
3.324620  12.751518 10.848160  4
4.708719  11.337035 9.550301  4
5.812934  12.677769 9.872607  4
5.005377  12.561154 8.305170  4
4.659867  15.115146 9.402030  4
4.920014  14.608013 11.078987  4
3.356527  15.277898 10.592477  4
 %endblock AtomicCoordinatesAndAtomicSpecies
************************** End of input data file *****************************

reinit: -----------------------------------------------------------------------
reinit: System Name: 
reinit: -----------------------------------------------------------------------
reinit: System Label: siesta
reinit: -----------------------------------------------------------------------

initatom: Reading input for the pseudopotentials and atomic orbitals ----------
Species number:   1 Atomic number:    6 Label: C
Species number:   2 Atomic number:    7 Label: N
Species number:   3 Atomic number:    8 Label: O
Species number:   4 Atomic number:    1 Label: H

Ground state valence configuration:   2s02  2p02
Reading pseudopotential information in formatted form from C.psf

Valence configuration for pseudopotential generation:
2s( 2.00) rc: 1.54
2p( 2.00) rc: 1.54
3d( 0.00) rc: 1.54
4f( 0.00) rc: 1.54
Ground state valence configuration:   2s02  2p03
Reading pseudopotential information in formatted form from N.psf

Valence configuration for pseudopotential generation:
2s( 2.00) rc: 1.48
2p( 3.00) rc: 1.48
3d( 0.00) rc: 1.48
4f( 0.00) rc: 1.48
Ground state valence configuration:   2s02  2p04
Reading pseudopotential information in formatted form from O.psf

Valence configuration for pseudopotential generation:
2s( 2.00) rc: 1.47
2p( 4.00) rc: 1.47
3d( 0.00) rc: 1.47
4f( 0.00) rc: 1.47
Ground state valence configuration:   1s01
Reading pseudopotential information in formatted form from H.psf

Valence configuration for pseudopotential generation:
1s( 1.00) rc: 1.31
2p( 0.00) rc: 1.31
3d( 0.00) rc: 0.37
4f( 0.00) rc: 1.31
For C, standard SIESTA heuristics set lmxkb to 3
 (one more than the basis l, including polarization orbitals).
Use PS.lmax or PS.KBprojectors blocks to override.
For N, standard SIESTA heuristics set lmxkb to 3
 (one more than the basis l, including polarization orbitals).
Use PS.lmax or PS.KBprojectors blocks to override.
For O, standard SIESTA heuristics set lmxkb to 3
 (one more than the basis l, including polarization orbitals).
Use PS.lmax or PS.KBprojectors blocks to override.
For H, standard SIESTA heuristics set lmxkb to 2
 (one more than the basis l, including polarization orbitals).
Use PS.lmax or PS.KBprojectors blocks to override.

<basis_specs>
===============================================================================
C                    Z=   6    Mass=  12.010        Charge= 0.17977+309
Lmxo=1 Lmxkb= 3    BasisType=split      Semic=F
L=0  Nsemic=0  Cnfigmx=2
          i=1  nzeta=2  polorb=0  (2s)
            splnorm:   0.15000    
               vcte:    0.0000    
               rinn:    0.0000    
               qcoe:    0.0000    
               qyuk:    0.0000    
               qwid:   0.10000E-01
                rcs:    0.0000      0.0000    
            lambdas:    1.0000      1.0000    
L=1  Nsemic=0  Cnfigmx=2
          i=1  nzeta=2  polorb=1  (2p)
            splnorm:   0.15000    
               vcte:    0.0000    
               rinn:    0.0000    
               qcoe:    0.0000    
               qyuk:    0.0000    
               qwid:   0.10000E-01
                rcs:    0.0000      0.0000    
            lambdas:    1.0000      1.0000    
-------------------------------------------------------------------------------
L=0  Nkbl=1  erefs: 0.17977+309
L=1  Nkbl=1  erefs: 0.17977+309
L=2  Nkbl=1  erefs: 0.17977+309
L=3  Nkbl=1  erefs: 0.17977+309
===============================================================================
</basis_specs>

atom: Called for C                     (Z =   6)

read_vps: Pseudopotential generation method:
read_vps: ATM3      Troullier-Martins                       
Valence charge for ps generation:    4.00000

read_vps: Pseudopotential includes a core correction:
read_vps: Pseudo-core for xc-correction

xc_check: Exchange-correlation functional:
xc_check: Ceperley-Alder
xc_check: WARNING: Pseudopotential generated with GGA PBE functional
V l=0 = -2*Zval/r beyond r=  1.5227
V l=1 = -2*Zval/r beyond r=  1.5227
V l=2 = -2*Zval/r beyond r=  1.5227
V l=3 = -2*Zval/r beyond r=  1.5038
All V_l potentials equal beyond r=  1.5227
This should be close to max(r_c) in ps generation
All pots = -2*Zval/r beyond r=  1.5227

VLOCAL1: 99.0% of the norm of Vloc inside     18.722 Ry
VLOCAL1: 99.9% of the norm of Vloc inside     42.668 Ry
atom: Maximum radius for 4*pi*r*r*local-pseudopot. charge    1.83678
atom: Maximum radius for r*vlocal+2*Zval:    1.58088

KBgen: Kleinman-Bylander projectors: 
GHOST: No ghost state for L =  0
   l= 0   rc=  1.704034   el= -0.998584   Ekb=  5.327875   kbcos=  0.314897
GHOST: No ghost state for L =  1
   l= 1   rc=  1.704034   el= -0.383998   Ekb= -3.785479   kbcos= -0.363289
GHOST: No ghost state for L =  2
   l= 2   rc=  1.791422   el=  0.002326   Ekb= -0.971263   kbcos= -0.009325
GHOST: No ghost state for L =  3
   l= 3   rc=  1.859892   el=  0.003420   Ekb= -0.399672   kbcos= -0.001232

KBgen: Total number of  Kleinman-Bylander projectors:   16
atom: -------------------------------------------------------------------------

atom: SANKEY-TYPE ORBITALS:
atom: Selected multiple-zeta basis: split     

SPLIT: Orbitals with angular momentum L= 0

SPLIT: Basis orbitals for state 2s

SPLIT: PAO cut-off radius determined from an
SPLIT: energy shift=  0.020000 Ry

   izeta = 1
                 lambda =    1.000000
                     rc =    4.191849
                 energy =   -0.980459
                kinetic =    0.881507
    potential(screened) =   -1.861966
       potential(ionic) =   -5.449625

   izeta = 2
                 rmatch =    3.431921
              splitnorm =    0.150000
                 energy =   -0.849396
                kinetic =    1.300036
    potential(screened) =   -2.149433
       potential(ionic) =   -5.962781

SPLIT: Orbitals with angular momentum L= 1

SPLIT: Basis orbitals for state 2p

SPLIT: PAO cut-off radius determined from an
SPLIT: energy shift=  0.020000 Ry

   izeta = 1
                 lambda =    1.000000
                     rc =    4.993604
                 energy =   -0.366127
                kinetic =    2.463190
    potential(screened) =   -2.829316
       potential(ionic) =   -6.291180

   izeta = 2
                 rmatch =    3.518811
              splitnorm =    0.150000
                 energy =   -0.204163
                kinetic =    3.723883
    potential(screened) =   -3.928045
       potential(ionic) =   -7.766545

POLgen: Perturbative polarization orbital with L=  2

POLgen: Polarization orbital for state 2p

   izeta = 1
                     rc =    4.993604
                 energy =    1.232619
                kinetic =    2.527283
    potential(screened) =   -1.294664
       potential(ionic) =   -4.203101
atom: Total number of Sankey-type orbitals: 13

atm_pop: Valence configuration (for local Pseudopot. screening):
 2s( 2.00)                                                            
 2p( 2.00)                                                            
Vna: chval, zval:    4.00000   4.00000

Vna:  Cut-off radius for the neutral-atom potential:   4.993604
comcore: Pseudo-core radius Rcore=  1.791422

atom: _________________________________________________________________________

<basis_specs>
===============================================================================
N                    Z=   7    Mass=  14.010        Charge= 0.17977+309
Lmxo=1 Lmxkb= 3    BasisType=split      Semic=F
L=0  Nsemic=0  Cnfigmx=2
          i=1  nzeta=2  polorb=0  (2s)
            splnorm:   0.15000    
               vcte:    0.0000    
               rinn:    0.0000    
               qcoe:    0.0000    
               qyuk:    0.0000    
               qwid:   0.10000E-01
                rcs:    0.0000      0.0000    
            lambdas:    1.0000      1.0000    
L=1  Nsemic=0  Cnfigmx=2
          i=1  nzeta=2  polorb=1  (2p)
            splnorm:   0.15000    
               vcte:    0.0000    
               rinn:    0.0000    
               qcoe:    0.0000    
               qyuk:    0.0000    
               qwid:   0.10000E-01
                rcs:    0.0000      0.0000    
            lambdas:    1.0000      1.0000    
-------------------------------------------------------------------------------
L=0  Nkbl=1  erefs: 0.17977+309
L=1  Nkbl=1  erefs: 0.17977+309
L=2  Nkbl=1  erefs: 0.17977+309
L=3  Nkbl=1  erefs: 0.17977+309
===============================================================================
</basis_specs>

atom: Called for N                     (Z =   7)

read_vps: Pseudopotential generation method:
read_vps: ATM3      Troullier-Martins                       
Valence charge for ps generation:    5.00000

read_vps: Pseudopotential includes a core correction:
read_vps: Pseudo-core for xc-correction

xc_check: Exchange-correlation functional:
xc_check: Ceperley-Alder
xc_check: WARNING: Pseudopotential generated with GGA PBE functional
V l=0 = -2*Zval/r beyond r=  1.4606
V l=1 = -2*Zval/r beyond r=  1.4606
V l=2 = -2*Zval/r beyond r=  1.4606
V l=3 = -2*Zval/r beyond r=  1.4606
All V_l potentials equal beyond r=  1.4606
This should be close to max(r_c) in ps generation
All pots = -2*Zval/r beyond r=  1.4606

VLOCAL1: 99.0% of the norm of Vloc inside     20.347 Ry
VLOCAL1: 99.9% of the norm of Vloc inside     46.372 Ry
atom: Maximum radius for 4*pi*r*r*local-pseudopot. charge    1.76189
atom: Maximum radius for r*vlocal+2*Zval:    1.53550

KBgen: Kleinman-Bylander projectors: 
GHOST: No ghost state for L =  0
   l= 0   rc=  1.634559   el= -1.348537   Ekb=  5.297520   kbcos=  0.333054
GHOST: No ghost state for L =  1
   l= 1   rc=  1.614250   el= -0.512415   Ekb= -5.262296   kbcos= -0.428933
GHOST: No ghost state for L =  2
   l= 2   rc=  1.718383   el=  0.002346   Ekb= -1.271998   kbcos= -0.007619
GHOST: No ghost state for L =  3
   l= 3   rc=  1.761893   el=  0.003449   Ekb= -0.494630   kbcos= -0.001017

KBgen: Total number of  Kleinman-Bylander projectors:   16
atom: -------------------------------------------------------------------------

atom: SANKEY-TYPE ORBITALS:
atom: Selected multiple-zeta basis: split     

SPLIT: Orbitals with angular momentum L= 0

SPLIT: Basis orbitals for state 2s

SPLIT: PAO cut-off radius determined from an
SPLIT: energy shift=  0.020000 Ry

   izeta = 1
                 lambda =    1.000000
                     rc =    3.683980
                 energy =   -1.330014
                kinetic =    1.203086
    potential(screened) =   -2.533100
       potential(ionic) =   -8.093205

   izeta = 2
                 rmatch =    2.905100
              splitnorm =    0.150000
                 energy =   -1.134717
                kinetic =    1.810562
    potential(screened) =   -2.945280
       potential(ionic) =   -8.899916

SPLIT: Orbitals with angular momentum L= 1

SPLIT: Basis orbitals for state 2p

SPLIT: PAO cut-off radius determined from an
SPLIT: energy shift=  0.020000 Ry

   izeta = 1
                 lambda =    1.000000
                     rc =    4.388595
                 energy =   -0.493943
                kinetic =    3.501321
    potential(screened) =   -3.995264
       potential(ionic) =   -9.374806

   izeta = 2
                 rmatch =    2.978652
              splitnorm =    0.150000
                 energy =   -0.289183
                kinetic =    5.180785
    potential(screened) =   -5.469968
       potential(ionic) =  -11.438899

POLgen: Perturbative polarization orbital with L=  2

POLgen: Polarization orbital for state 2p

   izeta = 1
                     rc =    4.388595
                 energy =    1.759924
                kinetic =    3.542120
    potential(screened) =   -1.782196
       potential(ionic) =   -6.226799
atom: Total number of Sankey-type orbitals: 13

atm_pop: Valence configuration (for local Pseudopot. screening):
 2s( 2.00)                                                            
 2p( 3.00)                                                            
Vna: chval, zval:    5.00000   5.00000

Vna:  Cut-off radius for the neutral-atom potential:   4.388595
comcore: Pseudo-core radius Rcore=  1.554824

atom: _________________________________________________________________________

<basis_specs>
===============================================================================
O                    Z=   8    Mass=  16.000        Charge= 0.17977+309
Lmxo=1 Lmxkb= 3    BasisType=split      Semic=F
L=0  Nsemic=0  Cnfigmx=2
          i=1  nzeta=2  polorb=0  (2s)
            splnorm:   0.15000    
               vcte:    0.0000    
               rinn:    0.0000    
               qcoe:    0.0000    
               qyuk:    0.0000    
               qwid:   0.10000E-01
                rcs:    0.0000      0.0000    
            lambdas:    1.0000      1.0000    
L=1  Nsemic=0  Cnfigmx=2
          i=1  nzeta=2  polorb=1  (2p)
            splnorm:   0.15000    
               vcte:    0.0000    
               rinn:    0.0000    
               qcoe:    0.0000    
               qyuk:    0.0000    
               qwid:   0.10000E-01
                rcs:    0.0000      0.0000    
            lambdas:    1.0000      1.0000    
-------------------------------------------------------------------------------
L=0  Nkbl=1  erefs: 0.17977+309
L=1  Nkbl=1  erefs: 0.17977+309
L=2  Nkbl=1  erefs: 0.17977+309
L=3  Nkbl=1  erefs: 0.17977+309
===============================================================================
</basis_specs>

atom: Called for O                     (Z =   8)

read_vps: Pseudopotential generation method:
read_vps: ATM3      Troullier-Martins                       
Valence charge for ps generation:    6.00000

read_vps: Pseudopotential includes a core correction:
read_vps: Pseudo-core for xc-correction

xc_check: Exchange-correlation functional:
xc_check: Ceperley-Alder
xc_check: WARNING: Pseudopotential generated with GGA PBE functional
V l=0 = -2*Zval/r beyond r=  1.4482
V l=1 = -2*Zval/r beyond r=  1.4482
V l=2 = -2*Zval/r beyond r=  1.4482
V l=3 = -2*Zval/r beyond r=  1.4482
All V_l potentials equal beyond r=  1.4482
This should be close to max(r_c) in ps generation
All pots = -2*Zval/r beyond r=  1.4482

VLOCAL1: 99.0% of the norm of Vloc inside     20.696 Ry
VLOCAL1: 99.9% of the norm of Vloc inside     47.167 Ry
atom: Maximum radius for 4*pi*r*r*local-pseudopot. charge    1.74697
atom: Maximum radius for r*vlocal+2*Zval:    1.52250

KBgen: Kleinman-Bylander projectors: 
GHOST: No ghost state for L =  0
   l= 0   rc=  1.620715   el= -1.738829   Ekb=  4.895054   kbcos=  0.290645
GHOST: No ghost state for L =  1
   l= 1   rc=  1.600578   el= -0.650915   Ekb= -6.916539   kbcos= -0.494696
GHOST: No ghost state for L =  2
   l= 2   rc=  1.703827   el=  0.002386   Ekb= -1.538961   kbcos= -0.006789
GHOST: No ghost state for L =  3
   l= 3   rc=  1.746967   el=  0.003508   Ekb= -0.568530   kbcos= -0.000966

KBgen: Total number of  Kleinman-Bylander projectors:   16
atom: -------------------------------------------------------------------------

atom: SANKEY-TYPE ORBITALS:
atom: Selected multiple-zeta basis: split     

SPLIT: Orbitals with angular momentum L= 0

SPLIT: Basis orbitals for state 2s

SPLIT: PAO cut-off radius determined from an
SPLIT: energy shift=  0.020000 Ry

   izeta = 1
                 lambda =    1.000000
                     rc =    3.305093
                 energy =   -1.720120
                kinetic =    1.583509
    potential(screened) =   -3.303629
       potential(ionic) =  -11.248859

   izeta = 2
                 rmatch =    2.510382
              splitnorm =    0.150000
                 energy =   -1.472890
                kinetic =    2.379100
    potential(screened) =   -3.851990
       potential(ionic) =  -12.389687

SPLIT: Orbitals with angular momentum L= 1

SPLIT: Basis orbitals for state 2p

SPLIT: PAO cut-off radius determined from an
SPLIT: energy shift=  0.020000 Ry

   izeta = 1
                 lambda =    1.000000
                     rc =    3.937239
                 energy =   -0.631844
                kinetic =    4.616405
    potential(screened) =   -5.248250
       potential(ionic) =  -12.927368

   izeta = 2
                 rmatch =    2.573941
              splitnorm =    0.150000
                 energy =   -0.344812
                kinetic =    6.889580
    potential(screened) =   -7.234392
       potential(ionic) =  -15.793960

POLgen: Perturbative polarization orbital with L=  2

POLgen: Polarization orbital for state 2p

   izeta = 1
                     rc =    3.937239
                 energy =    2.368129
                kinetic =    4.725445
    potential(screened) =   -2.357315
       potential(ionic) =   -8.649185
atom: Total number of Sankey-type orbitals: 13

atm_pop: Valence configuration (for local Pseudopot. screening):
 2s( 2.00)                                                            
 2p( 4.00)                                                            
Vna: chval, zval:    6.00000   6.00000

Vna:  Cut-off radius for the neutral-atom potential:   3.937239
comcore: Pseudo-core radius Rcore=  1.377587

atom: _________________________________________________________________________

<basis_specs>
===============================================================================
H                    Z=   1    Mass=  1.0100        Charge= 0.17977+309
Lmxo=0 Lmxkb= 2    BasisType=split      Semic=F
L=0  Nsemic=0  Cnfigmx=1
          i=1  nzeta=2  polorb=1  (1s)
            splnorm:   0.15000    
               vcte:    0.0000    
               rinn:    0.0000    
               qcoe:    0.0000    
               qyuk:    0.0000    
               qwid:   0.10000E-01
                rcs:    0.0000      0.0000    
            lambdas:    1.0000      1.0000    
-------------------------------------------------------------------------------
L=0  Nkbl=1  erefs: 0.17977+309
L=1  Nkbl=1  erefs: 0.17977+309
L=2  Nkbl=1  erefs: 0.17977+309
===============================================================================
</basis_specs>

atom: Called for H                     (Z =   1)

read_vps: Pseudopotential generation method:
read_vps: ATM3      Troullier-Martins                       
Valence charge for ps generation:    1.00000

xc_check: Exchange-correlation functional:
xc_check: Ceperley-Alder
xc_check: WARNING: Pseudopotential generated with GGA PBE functional
V l=0 = -2*Zval/r beyond r=  1.2977
V l=1 = -2*Zval/r beyond r=  1.2815
V l=2 = -2*Zval/r beyond r=  1.2656
All V_l potentials equal beyond r=  1.2977
This should be close to max(r_c) in ps generation
All pots = -2*Zval/r beyond r=  1.2977

VLOCAL1: 99.0% of the norm of Vloc inside     25.776 Ry
VLOCAL1: 99.9% of the norm of Vloc inside     58.745 Ry
atom: Maximum radius for 4*pi*r*r*local-pseudopot. charge    1.52711
atom: Maximum radius for r*vlocal+2*Zval:    1.28155

KBgen: Kleinman-Bylander projectors: 
GHOST: No ghost state for L =  0
   l= 0   rc=  1.434438   el= -0.456815   Ekb= -1.960338   kbcos= -0.349997
GHOST: No ghost state for L =  1
   l= 1   rc=  1.508111   el=  0.001431   Ekb= -0.423993   kbcos= -0.025386
GHOST: No ghost state for L =  2
   l= 2   rc=  1.546352   el=  0.002365   Ekb= -0.376562   kbcos= -0.002012

KBgen: Total number of  Kleinman-Bylander projectors:    9
atom: -------------------------------------------------------------------------

atom: SANKEY-TYPE ORBITALS:
atom: Selected multiple-zeta basis: split     

SPLIT: Orbitals with angular momentum L= 0

SPLIT: Basis orbitals for state 1s

SPLIT: PAO cut-off radius determined from an
SPLIT: energy shift=  0.020000 Ry

   izeta = 1
                 lambda =    1.000000
                     rc =    4.828263
                 energy =   -0.438372
                kinetic =    0.921576
    potential(screened) =   -1.359947
       potential(ionic) =   -1.906664

   izeta = 2
                 rmatch =    3.903467
              splitnorm =    0.150000
                 energy =   -0.330751
                kinetic =    1.475177
    potential(screened) =   -1.805928
       potential(ionic) =   -2.389550

POLgen: Perturbative polarization orbital with L=  1

POLgen: Polarization orbital for state 1s

   izeta = 1
                     rc =    4.828263
                 energy =    0.711580
                kinetic =    1.391494
    potential(screened) =   -0.679914
       potential(ionic) =   -1.168115
atom: Total number of Sankey-type orbitals:  5

atm_pop: Valence configuration (for local Pseudopot. screening):
 1s( 1.00)                                                            
Vna: chval, zval:    1.00000   1.00000

Vna:  Cut-off radius for the neutral-atom potential:   4.828263

atom: _________________________________________________________________________

prinput: Basis input ----------------------------------------------------------

PAO.BasisType split     

%block ChemicalSpeciesLabel
    1    6 C                       # Species index, atomic number, species label
    2    7 N                       # Species index, atomic number, species label
    3    8 O                       # Species index, atomic number, species label
    4    1 H                       # Species index, atomic number, species label
%endblock ChemicalSpeciesLabel

%block PAO.Basis                 # Define Basis set
C                     2                    # Species label, number of l-shells
 n=2   0   2                         # n, l, Nzeta 
   4.192      3.432   
   1.000      1.000   
 n=2   1   2 P   1                   # n, l, Nzeta, Polarization, NzetaPol
   4.994      3.519   
   1.000      1.000   
N                     2                    # Species label, number of l-shells
 n=2   0   2                         # n, l, Nzeta 
   3.684      2.905   
   1.000      1.000   
 n=2   1   2 P   1                   # n, l, Nzeta, Polarization, NzetaPol
   4.389      2.979   
   1.000      1.000   
O                     2                    # Species label, number of l-shells
 n=2   0   2                         # n, l, Nzeta 
   3.305      2.510   
   1.000      1.000   
 n=2   1   2 P   1                   # n, l, Nzeta, Polarization, NzetaPol
   3.937      2.574   
   1.000      1.000   
H                     1                    # Species label, number of l-shells
 n=1   0   2 P   1                   # n, l, Nzeta, Polarization, NzetaPol
   4.828      3.903   
   1.000      1.000   
%endblock PAO.Basis

prinput: ----------------------------------------------------------------------

coor:   Atomic-coordinates input format  =     Cartesian coordinates
coor:                                          (in Angstroms)

siesta: Atomic coordinates (Bohr) and species
siesta:     25.49853  31.30780  19.46810  1        1
siesta:     22.87002  30.77967  19.36021  1        2
siesta:     21.14464  32.78868  19.80838  1        3
siesta:     21.95910  35.22524  20.40788  1        4
siesta:     24.54935  35.62087  20.70641  1        5
siesta:     26.40363  33.72813  20.21965  1        6
siesta:     27.26941  29.39057  18.83368  1        7
siesta:     26.32614  26.94098  18.33552  1        8
siesta:     23.85127  26.41824  18.33240  2        9
siesta:     22.13382  28.27652  18.77279  1       10
siesta:     29.07371  34.17524  20.44105  1       11
siesta:     30.81812  32.28585  19.65702  1       12
siesta:     29.88879  29.89785  18.77556  1       13
siesta:     31.49827  27.93094  17.90968  1       14
siesta:     30.62724  25.47773  17.48650  1       15
siesta:     28.06093  24.98182  17.92391  1       16
siesta:     32.52024  23.38152  16.87971  1       17
siesta:     31.54717  20.70772  17.55240  1       18
siesta:     29.34818  20.69709  19.44633  1       19
siesta:     27.20936  22.26569  18.23726  1       20
siesta:     30.10180  36.44476  21.47283  1       21
siesta:     32.69555  36.88766  21.80919  1       22
siesta:     34.35237  35.04669  20.96602  1       23
siesta:     33.43836  32.82009  19.89661  1       24
siesta:     19.40124  27.40316  18.52888  1       25
siesta:     18.60391  25.35920  20.46261  1       26
siesta:     18.81729  26.33197  23.17475  1       27
siesta:     15.87845  24.46676  20.01594  1       28
siesta:     20.08861  37.39832  20.65978  1       29
siesta:     19.69968  38.89016  18.17404  1       30
siesta:     17.81295  41.12938  18.36415  1       31
siesta:     18.66210  43.16733  20.23168  1       32
siesta:     17.34472  42.36001  15.77305  1       33
siesta:     30.15472  21.62486  22.10760  1       34
siesta:     28.01462  21.58854  24.06571  1       35
siesta:     28.84763  22.57712  26.65704  1       36
siesta:     30.95953  21.02507  27.83341  1       37
siesta:     33.34662  23.50803  14.07690  1       38
siesta:     35.48437  21.68987  13.41069  1       39
siesta:     36.88835  35.39858  21.26844  3       40
siesta:     33.58604  39.26283  23.12345  1       41
siesta:     33.96847  41.49254  21.32415  1       42
siesta:     34.84875  43.85672  22.71403  1       43
siesta:     19.12279  32.47448  19.69237  4       44
siesta:     25.13211  37.50132  21.29169  4       45
siesta:     33.50897  28.24208  17.68668  4       46
siesta:     34.18957  23.72101  18.06916  4       47
siesta:     33.12110  19.54459  18.24024  4       48
siesta:     30.87605  19.76412  15.82752  4       49
siesta:     28.69625  18.73720  19.64273  4       50
siesta:     25.53977  22.13506  19.45037  4       51
siesta:     26.68070  21.49003  16.39211  4       52
siesta:     28.84059  37.92312  22.15607  4       53
siesta:     34.82877  31.43066  19.31005  4       54
siesta:     19.18333  26.63772  16.61031  4       55
siesta:     18.07140  28.97753  18.62953  4       56
siesta:     19.84129  23.70746  20.25616  4       57
siesta:     17.58385  27.96776  23.47180  4       58
siesta:     20.75520  26.88871  23.62568  4       59
siesta:     18.26218  24.86192  24.52181  4       60
siesta:     14.52376  26.01622  20.24570  4       61
siesta:     15.36794  22.99183  21.38063  4       62
siesta:     15.63515  23.67033  18.12271  4       63
siesta:     20.74775  38.65431  22.17010  4       64
siesta:     18.26570  36.64567  21.29541  4       65
siesta:     18.99558  37.57482  16.73146  4       66
siesta:     21.52693  39.58532  17.47985  4       67
siesta:     15.99045  40.39175  19.02056  4       68
siesta:     20.55916  43.86460  19.78866  4       69
siesta:     18.66116  42.44679  22.16797  4       70
siesta:     17.36975  44.78737  20.19071  4       71
siesta:     19.09875  43.03386  14.90436  4       72
siesta:     16.07317  43.98949  15.94951  4       73
siesta:     16.44598  41.02883  14.46882  4       74
siesta:     30.92300  23.54580  22.04330  4       75
siesta:     31.71025  20.42244  22.75622  4       76
siesta:     27.27263  19.66443  24.25854  4       77
siesta:     26.44404  22.78048  23.43203  4       78
siesta:     27.21429  22.56234  27.93319  4       79
siesta:     29.45465  24.55183  26.49186  4       80
siesta:     30.43325  19.02815  27.94483  4       81
siesta:     31.36632  21.69828  29.74511  4       82
siesta:     32.70790  21.18132  26.74156  4       83
siesta:     33.96231  25.42734  13.59187  4       84
siesta:     31.72038  23.09802  12.85571  4       85
siesta:     37.23234  22.21615  14.38267  4       86
siesta:     35.85043  21.73914  11.37366  4       87
siesta:     35.02920  19.73539  13.90627  4       88
siesta:     37.76712  33.86095  20.78149  4       89
siesta:     35.33624  38.87397  24.16458  4       90
siesta:     32.19466  39.77238  24.57643  4       91
siesta:     32.19438  41.91896  20.34303  4       92
siesta:     35.36220  41.00781  19.87026  4       93
siesta:     33.51842  44.39231  24.20567  4       94
siesta:     34.99748  45.44551  21.39633  4       95
siesta:     36.70817  43.57135  23.57574  4       96
siesta:      1.87396  54.54734  50.63462  1       97
siesta:      1.85245  56.07596  51.74547  1       98
siesta:      3.45511  56.69428  52.53299  1       99
siesta:      5.07929  55.78401  52.20967  1      100
siesta:      6.68196  56.40235  52.99721  1      101
siesta:      8.30613  55.49207  52.67390  1      102
siesta:      9.90879  56.11040  53.46141  1      103
siesta:     11.53296  55.20012  53.13810  1      104
siesta:     13.13563  55.81846  53.92564  1      105
siesta:     14.75980  54.90818  53.60232  1      106
siesta:     16.36246  55.52651  54.38984  1      107
siesta:     17.98663  54.61624  54.06653  1      108
siesta:     19.58930  55.23458  54.85406  1      109
siesta:     21.21347  54.32430  54.53075  1      110
siesta:     22.81613  54.94263  55.31827  1      111
siesta:     24.44031  54.03235  54.99496  1      112
siesta:     26.04297  54.65069  55.78249  1      113
siesta:     27.66715  53.74041  55.45918  1      114
siesta:     29.26981  54.35874  56.24670  1      115
siesta:     30.89398  53.44847  55.92339  1      116
siesta:     32.49665  54.06681  56.71092  1      117
siesta:     34.12082  53.15653  56.38761  1      118
siesta:      2.99233  41.21614  15.86591  1      119
siesta:      4.39149  39.66224  13.98411  1      120
siesta:      4.45872  37.12910  13.84078  1      121
siesta:      3.13380  35.39172  15.68617  1      122
siesta:      5.97475  35.79249  11.84864  1      123
siesta:      5.72902  36.66957   9.09298  1      124
siesta:      7.04540  34.89794   7.19201  1      125
siesta:      5.80352  32.28320   6.65423  1      126
siesta:      7.51093  30.80223   4.84665  1      127
siesta:      5.19688  30.70634   9.02510  1      128
siesta:      4.25203  27.98910   8.57840  1      129
siesta:      3.76717  26.74780  11.15690  1      130
siesta:      2.74034  24.02492  11.06356  1      131
siesta:      4.63511  22.21672   9.83194  1      132
siesta:      1.82024  23.01040  13.66411  1      133
siesta:      3.77296  22.71854  15.81234  1      134
siesta:      4.81793  25.20493  16.85150  1      135
siesta:      6.98662  24.98875  18.76735  1      136
siesta:      9.20408  23.44532  17.73024  1      137
siesta:      7.90659  27.66325  19.41609  1      138
siesta:      2.24917  42.91286  14.95091  4      139
siesta:      4.27816  41.78875  17.37802  4      140
siesta:      1.39367  40.20963  16.68578  4      141
siesta:      5.47532  40.75305  12.60221  4      142
siesta:      2.87357  36.25607  17.54389  4      143
siesta:      4.22448  33.66240  16.00462  4      144
siesta:      1.27514  34.84903  14.94352  4      145
siesta:      5.34015  33.86440  11.98807  4      146
siesta:      7.97149  35.72269  12.40172  4      147
siesta:      6.62198  38.53588   8.91675  4      148
siesta:      3.74478  36.91595   8.55368  4      149
siesta:      9.02614  34.65758   7.75433  4      150
siesta:      7.10901  35.91430   5.37651  4      151
siesta:      4.01534  32.64940   5.66938  4      152
siesta:      9.26506  30.22781   5.77385  4      153
siesta:      7.99865  31.94208   3.18424  4      154
siesta:      6.55432  29.10577   4.15364  4      155
siesta:      3.59934  31.61442   9.97628  4      156
siesta:      6.83620  30.64677  10.26961  4      157
siesta:      5.70437  26.90545   7.57421  4      158
siesta:      2.53080  27.99889   7.43046  4      159
siesta:      2.51529  27.93292  12.29119  4      160
siesta:      5.63910  26.71782  12.00948  4      161
siesta:      1.04766  24.07190   9.85356  4      162
siesta:      5.03295  20.56345  11.00735  4      163
siesta:      6.44555  23.12768   9.42533  4      164
siesta:      3.87364  21.51715   8.03822  4      165
siesta:      1.01507  21.12590  13.32485  4      166
siesta:      0.23615  24.16877  14.33530  4      167
siesta:      5.29594  21.47498  15.17868  4      168
siesta:      2.83966  21.72684  17.37983  4      169
siesta:      3.26481  26.32948  17.63196  4      170
siesta:      5.61470  26.33275  15.34932  4      171
siesta:      6.28262  24.09689  20.50006  4      172
siesta:      8.89819  21.42390  18.04746  4      173
siesta:     10.98486  23.95752  18.65653  4      174
siesta:      9.45880  23.73715  15.69450  4      175
siesta:      8.80588  28.56350  17.76727  4      176
siesta:      9.29748  27.60515  20.93626  4      177
siesta:      6.34292  28.87105  20.01689  4      178

siesta: System type = molecule  

initatomlists: Number of atoms, orbitals, and projectors:    178  1570  2197

coxmol: Writing XMOL coordinates into file siesta.xyz                                                          

siesta: ******************** Simulation parameters ****************************
siesta:
siesta: The following are some of the parameters of the simulation.
siesta: A complete list of the parameters used, including default values,
siesta: can be found in file out.fdf
siesta:
redata: Spin configuration                          = collinear
redata: Number of spin components                   = 2
redata: Time-Reversal Symmetry                      = T
redata: Spin spiral                                 = F
redata: Long output                                 =   T
redata: Number of Atomic Species                    =        4
redata: Charge density info will appear in .RHO file
redata: Write Mulliken Pop.                         = Atomic and Orbital charges
redata: Matel table size (NRTAB)                    =     1024
redata: Mesh Cutoff                                 =   100.0000 Ry
redata: Net charge of the system                    =     0.0000 |e|
redata: Min. number of SCF Iter                     =        0
redata: Max. number of SCF Iter                     =      100
redata: SCF convergence failure will abort job
redata: SCF mix quantity                            = Hamiltonian
redata: Mix DM or H after convergence               =   F
redata: Recompute H after scf cycle                 =   F
redata: Mix DM in first SCF step                    =   T
redata: Write Pulay info on disk                    =   F
redata: New DM Occupancy tolerance                  = 0.000000000001
redata: No kicks to SCF
redata: DM Mixing Weight for Kicks                  =     0.5000
redata: Require Harris convergence for SCF          =   F
redata: Harris energy tolerance for SCF             =     0.000100 eV
redata: Require DM convergence for SCF              =   T
redata: DM tolerance for SCF                        =     0.001000
redata: Require EDM convergence for SCF             =   F
redata: EDM tolerance for SCF                       =     0.001000 eV
redata: Require H convergence for SCF               =   T
redata: Hamiltonian tolerance for SCF               =     0.001000 eV
redata: Require (free) Energy convergence for SCF   =   F
redata: (free) Energy tolerance for SCF             =     0.000100 eV
redata: Antiferro initial spin density              =   F
redata: Using Saved Data (generic)                  =   F
redata: Use continuation files for DM               =   F
redata: Neglect nonoverlap interactions             =   F
redata: Method of Calculation                       = Diagonalization
redata: Electronic Temperature                      =   299.9869 K
redata: Fix the spin of the system                  =   F
redata: Max. number of TDED Iter                    =        1
redata: Number of TDED substeps                     =        3
redata: Dynamics option                             = Nose thermostat MD run
redata: Initial MD time step                        =        1
redata:   Final MD time step                        =       10
redata: Length of MD time step                      =     1.0000 fs
redata: Initial Temperature of MD run               =   300.0000 K
redata: Perform a MD quench                         =   F
redata: Nose mass                                   =  1360.5800 eV/fs**2
redata: Target Temperature                          =   300.0000 Kelvin
mix.SCF: Pulay mixing                            = Pulay
mix.SCF:    Variant                              = stable
mix.SCF:    History steps                        = 3
mix.SCF:    Linear mixing weight                 =     0.250000
mix.SCF:    Mixing weight                        =     0.250000
mix.SCF:    SVD condition                        = 0.1000E-07
mix.SCF: Spin-component mixing                   all
redata: ***********************************************************************

%block SCF.Mixers
  Pulay
%endblock SCF.Mixers

%block SCF.Mixer.Pulay
  # Mixing method
  method pulay
  variant stable

  # Mixing options
  weight 0.2500
  weight.linear 0.2500
  history 3
%endblock SCF.Mixer.Pulay

Size of DM history Fstack: 1
Total number of electrons:   436.000000
Total ionic charge:   436.000000
 Kpoints in:            1 . Kpoints trimmed:            1

siesta: k-point coordinates (Bohr**-1) and weights:
siesta:          1  0.000000E+00  0.000000E+00  0.000000E+00   0.100000E+01

siesta: k-grid: Number of k-points =         1
siesta: k-points from Monkhorst-Pack grid
siesta: k-cutoff (effective) =    13.930 Ang
siesta: k-point supercell and displacements
siesta: k-grid:    1   0   0      0.000
siesta: k-grid:    0   1   0      0.000
siesta: k-grid:    0   0   1      0.000
 Kpoints in:            1 . Kpoints trimmed:            1

siesta: PDOS k-point coordinates (Bohr**-1) and weights:
siesta:          1  0.000000E+00  0.000000E+00  0.000000E+00   0.100000E+01

siesta: PDOS k-grid: Number of k-points =         1
siesta: PDOS k-points from Monkhorst-Pack grid
siesta: PDOS k-cutoff (effective) =     0.000 Ang
siesta: PDOS k-point supercell and displacements
siesta: k-grid:    1   0   0      0.000
siesta: k-grid:    0   1   0      0.000
siesta: k-grid:    0   0   1      0.000

diag: Algorithm                                     = D&C
diag: Used triangular part                          = Lower
diag: Absolute tolerance                            =  0.100E-15
diag: Orthogonalization factor                      =  0.100E-05
diag: Memory factor                                 =  1.0000
Using LatticeConstant from fdf file for BandLinesScale:    1.889727 Bohr
Beware any cell changes by the end of the run
Using LatticeConstant from fdf file for BandLinesScale:    1.889727 Bohr
Beware any cell changes by the end of the run


ts: **************************************************************
ts: Save H and S matrices                           =    F
ts: Save DM and EDM matrices                        =    F
ts: Only save the overlap matrix S                  =    F
ts: **************************************************************

************************ Begin: TS CHECKS AND WARNINGS ************************
************************ End: TS CHECKS AND WARNINGS **************************


                     ====================================
                        Begin MD step =      1
                     ====================================

outcoor: Atomic coordinates (Ang):                          
   13.49323700   16.56737000   10.30206900   1       1  C
   12.10228700   16.28789200   10.24497900   1       2  C
   11.18925600   17.35101300   10.48213900   1       3  C
   11.62025100   18.64038600   10.79938100   1       4  C
   12.99095400   18.84974700   10.95735800   1       5  C
   13.97219400   17.84815100   10.69977300   1       6  C
   14.43034600   15.55281300    9.96635200   1       7  C
   13.93118800   14.25654700    9.70273500   1       8  C
   12.62154500   13.97992600    9.70108500   2       9  N
   11.71271000   14.96328300    9.93412900   1      10  C
   15.38513900   18.08475100   10.81693500   1      11  C
   16.30823900   17.08493100   10.40204300   1      12  C
   15.81646100   15.82125400    9.93559200   1      13  C
   16.66815800   14.78040900    9.47738900   1      14  C
   16.20723000   13.48222700    9.25345100   1      15  C
   14.84919900   13.21980600    9.48491900   1      16  C
   17.20896300   12.37296100    8.93235300   1      17  C
   16.69403900   10.95804900    9.28832800   1      18  C
   15.53038000   10.95242300   10.29055200   1      19  C
   14.39856500   11.78249100    9.65073700   1      20  C
   15.92918100   19.28572800   11.36292900   1      21  C
   17.30173200   19.52009900   11.54092300   1      22  C
   18.17848300   18.54590000   11.09473800   1      23  C
   17.69481200   17.36763500   10.52882800   1      24  C
   10.26668900   14.50112200    9.80505700   1      25  C
    9.84475900   13.41950800   10.82834400   1      26  C
    9.95767600   13.93427500   12.26354500   1      27  C
    8.40250900   12.94724700   10.59197600   1      28  C
   10.63043200   19.79032900   10.93268200   1      29  C
   10.42462000   20.57978000    9.61728300   1      30  C
    9.42620200   21.76472000    9.71788500   1      31  C
    9.87555600   22.84316000   10.70613800   1      32  C
    9.17842800   22.41594100    8.34673600   1      33  C
   15.95718200   11.44337800   11.69883600   1      34  C
   14.82469500   11.42415800   12.73501800   1      35  C
   15.26550000   11.94729200   14.10629000   1      36  C
   16.38306900   11.12598500   14.72880300   1      37  C
   17.64626500   12.43991100    7.44917300   1      38  C
   18.77751500   11.47777900    7.09663000   1      39  C
   19.52046700   18.73211400   11.25476700   3      40  O
   17.77295900   20.77698600   12.23640000   1      41  C
   17.97533400   21.95689900   11.28425200   1      42  C
   18.44115500   23.20796500   12.01974000   1      43  C
   10.11933800   17.18474900   10.42075000   4      44  H
   13.29933200   19.84483700   11.26707300   4      45  H
   17.73217700   14.94505900    9.35938500   4      46  H
   18.09233500   12.55261200    9.56178600   4      47  H
   17.52692500   10.34254900    9.65231600   4      48  H
   16.33889400   10.45872000    8.37556100   4      49  H
   15.18539400    9.91529500   10.39448200   4      50  H
   13.51505800   11.71336200   10.29269100   4      51  H
   14.11881300   11.37202700    8.67432700   4      52  H
   15.26177900   20.06804500   11.72448500   4      53  H
   18.43058300   16.63238100   10.21843400   4      54  H
   10.15137800   14.09607100    8.78979300   4      55  H
    9.56296800   15.33424200    9.85832000   4      56  H
   10.49955400   12.54544100   10.71909200   4      57  H
    9.30496900   14.79989600   12.42073800   4      58  H
   10.98317700   14.22888900   12.50216500   4      59  H
    9.66392300   13.15635800   12.97637800   4      60  H
    7.68563800   13.76718300   10.71355900   4      61  H
    8.13235900   12.16674500   11.31414000   4      62  H
    8.27376200   12.52579500    9.59012000   4      63  H
   10.97923000   20.45497000   11.73190500   4      64  H
    9.66578700   19.39204400   11.26904000   4      65  H
   10.05202500   19.88373300    8.85390300   4      66  H
   11.39155800   20.94764200    9.24993600   4      67  H
    8.46178000   21.37438600   10.06524500   4      68  H
   10.87943500   23.21213800   10.47170500   4      69  H
    9.87505600   22.46186400   11.73077800   4      70  H
    9.19167000   23.70044800   10.68446000   4      71  H
   10.10661800   22.77253100    7.88704500   4      72  H
    8.50555100   23.27822600    8.44011600   4      73  H
    8.70283300   21.71151300    7.65656700   4      74  H
   16.36373900   12.45989800   11.66480700   4      75  H
   16.78033300   10.80708300   12.04206700   4      76  H
   14.43205100   10.40596300   12.83706200   4      77  H
   13.99358000   12.05490800   12.39969100   4      78  H
   14.40117700   11.93946900   14.78160300   4      79  H
   15.58672500   12.99226200   14.01888300   4      80  H
   16.10457600   10.06926000   14.78776200   4      81  H
   16.59833500   11.48223300   15.74043000   4      82  H
   17.30827000   11.20866900   14.15102000   4      83  H
   17.97207300   13.45556200    7.19250600   4      84  H
   16.78569400   12.22294300    6.80294600   4      85  H
   19.70250000   11.75627500    7.61097800   4      86  H
   18.97122300   11.50385200    6.01867700   4      87  H
   18.53664600   10.44351300    7.35887900   4      88  H
   19.98548900   17.91843500   10.99708800   4      89  H
   18.69912700   20.57121300   12.78734200   4      90  H
   17.03667100   21.04662900   13.00528300   4      91  H
   17.03652600   22.18254800   10.76506100   4      92  H
   18.71286400   21.70039000   10.51488300   4      93  H
   17.73717500   23.49138700   12.80908600   4      94  H
   18.51986000   24.04872000   11.32244700   4      95  H
   19.42511700   23.05695600   12.47573700   4      96  H
    0.99165500   28.86519800   26.79467800   1      97  C
    0.98027600   29.67410600   27.38251000   1      98  C
    1.82836700   30.00131000   27.79924800   1      99  C
    2.68784100   29.51961300   27.62815900   1     100  C
    3.53593700   29.84682400   28.04490300   1     101  C
    4.39541200   29.36512700   27.87381400   1     102  C
    5.24350200   29.69233100   28.29055100   1     103  C
    6.10297700   29.21063400   28.11946200   1     104  C
    6.95107200   29.53784500   28.53620600   1     105  C
    7.81054700   29.05614800   28.36511700   1     106  C
    8.65863800   29.38335300   28.78185400   1     107  C
    9.51811200   28.90165600   28.61076600   1     108  C
   10.36620800   29.22886700   29.02750900   1     109  C
   11.22568300   28.74717000   28.85642000   1     110  C
   12.07377300   29.07437400   29.27315800   1     111  C
   12.93324800   28.59267700   29.10206900   1     112  C
   13.78134300   28.91988800   29.51881200   1     113  C
   14.64081800   28.43819100   29.34772300   1     114  C
   15.48890900   28.76539600   29.76446100   1     115  C
   16.34838300   28.28369900   29.59337200   1     116  C
   17.19647900   28.61091000   30.01011500   1     117  C
   18.05595400   28.12921300   29.83902600   1     118  C
    1.58347100   21.81063300    8.39587700   1     119  C
    2.32387400   20.98834300    7.40007000   1     120  C
    2.35945000   19.64786500    7.32422400   1     121  C
    1.65833300   18.72848400    8.30076000   1     122  C
    3.16170100   18.94056500    6.27002700   1     123  C
    3.03166700   19.40469200    4.81179400   1     124  C
    3.72826200   18.46718900    3.80584800   1     125  C
    3.07109100   17.08352700    3.52126700   1     126  C
    3.97461100   16.29983200    2.56473600   1     127  C
    2.75007000   16.24909100    4.77587400   1     128  C
    2.25007900   14.81118600    4.53949100   1     129  C
    1.99350000   14.15432000    5.90397400   1     130  C
    1.45012400   12.71343700    5.85458000   1     131  C
    2.45279300   11.75657600    5.20283700   1     132  C
    0.96322700   12.17657700    7.23073100   1     133  C
    1.99656300   12.02213100    8.36752800   1     134  C
    2.54953900   13.33787100    8.91742500   1     135  C
    3.69715700   13.22347100    9.93124800   1     136  C
    4.87058800   12.40672600    9.38243400   1     137  C
    4.18398800   14.63875800   10.27454600   1     138  C
    1.19020800   22.70849800    7.91168000   4     139  H
    2.26390600   22.11364500    9.19605000   4     140  H
    0.73749600   21.27801300    8.82973100   4     141  H
    2.89741200   21.56557600    6.66879800   4     142  H
    1.52062700   19.18587800    9.28382500   4     143  H
    2.23549700   17.81337000    8.46927600   4     144  H
    0.67477300   18.44130300    7.90776500   4     145  H
    2.82588500   17.92026200    6.34381100   4     146  H
    4.21832700   18.90362700    6.56270400   4     147  H
    3.50420200   20.39230100    4.71853700   4     148  H
    1.98165100   19.53507000    4.52641100   4     149  H
    4.77642800   18.33999200    4.10341400   4     150  H
    3.76192500   19.00502200    2.84512700   4     151  H
    2.12482500   17.27730900    3.00010500   4     152  H
    4.90285800   15.99586200    3.05538600   4     153  H
    4.23269900   16.90301500    1.68502500   4     154  H
    3.46839700   15.40210200    2.19800900   4     155  H
    1.90468600   16.72962500    5.27921800   4     156  H
    3.61756200   16.21756600    5.43444200   4     157  H
    3.01862000   14.23774400    4.00809700   4     158  H
    1.33924200   14.81637000    3.93202800   4     159  H
    1.33103200   14.78145700    6.50421500   4     160  H
    2.98408000   14.13845600    6.35513900   4     161  H
    0.55439500   12.73829600    5.21427500   4     162  H
    2.66332100   10.88170700    5.82483700   4     163  H
    3.41083700   12.23863800    4.98766600   4     164  H
    2.04983900   11.38637900    4.25364200   4     165  H
    0.53715100   11.17934200    7.05120200   4     166  H
    0.12496600   12.78955600    7.58590900   4     167  H
    2.80248800   11.36406300    8.03221000   4     168  H
    1.50268400   11.49734200    9.19700400   4     169  H
    1.72766300   13.93295300    9.33042900   4     170  H
    2.97117000   13.93468400    8.12250500   4     171  H
    3.32462000   12.75151800   10.84816000   4     172  H
    4.70871900   11.33703500    9.55030100   4     173  H
    5.81293400   12.67776900    9.87260700   4     174  H
    5.00537700   12.56115400    8.30517000   4     175  H
    4.65986700   15.11514600    9.40203000   4     176  H
    4.92001400   14.60801300   11.07898700   4     177  H
    3.35652700   15.27789800   10.59247700   4     178  H

outcell: Unit cell vectors (Ang):
       27.860523    0.000000    0.000000
        0.000000   28.086015    0.000000
        0.000000    0.000000   36.325090

outcell: Cell vector modules (Ang)   :   27.860523   28.086015   36.325090
outcell: Cell angles (23,13,12) (deg):     90.0000     90.0000     90.0000
outcell: Cell volume (Ang**3)        :  28424.0584
<dSpData1D:S at geom step 1
  <sparsity:sparsity for geom step 1
    nrows_g=1570 nrows=1570 sparsity=.1610 nnzs=396952, refcount: 7>
  <dData1D:(new from dSpData1D) n=396952, refcount: 1>
refcount: 1>
new_DM -- step:     1
Initializing Density Matrix...
DM filled with atomic data:
<dSpData2D:DM initialized from atoms
  <sparsity:sparsity for geom step 1
    nrows_g=1570 nrows=1570 sparsity=.1610 nnzs=396952, refcount: 8>
  <dData2D:DM n=396952 m=2, refcount: 1>
refcount: 1>
     spin moment: S , {S} =  264.00000       0.0       0.0 264.00000
No. of atoms with KB's overlaping orbs in proc 0. Max # of overlaps:     178     202

InitMesh: MESH = 180 x 180 x 240 = 7776000
InitMesh: Mesh cutoff (required, used) =   100.000   113.518 Ry
New grid distribution [1]: sub = 2

stepf: Fermi-Dirac step function

siesta: Program's energy decomposition (eV):
siesta: Ebs     =     -5299.885463
siesta: Eions   =     23978.806015
siesta: Ena     =      5158.565944
siesta: Ekin    =     12258.535592
siesta: Enl     =     -1769.907680
siesta: Eso     =         0.000000
siesta: Edftu   =         0.000000
siesta: DEna    =     -1229.957397
siesta: DUscf   =       328.736095
siesta: DUext   =         0.000000
siesta: Exc     =     -5943.922820
siesta: eta*DQ  =         0.000000
siesta: Emadel  =         0.000000
siesta: Emeta   =         0.000000
siesta: Emolmec =         0.000000
siesta: Ekinion =         0.000000
siesta: Eharris =    -14737.064197
siesta: Etot    =    -15176.756282
siesta: FreeEng =    -15176.797798

        iscf     Eharris(eV)        E_KS(eV)     FreeEng(eV)     dDmax    Ef(eV) dHmax(eV)
   scf:    1   -14737.064197   -15176.756282   -15176.797798  0.972942 -6.514925 39.925870
     spin moment: S , {S} =   14.28372       0.0       0.0  14.28372
timer: Routine,Calls,Time,% = IterSCF        1      28.822  37.44
   scf:    2   -12890.280100   -14676.550716   -14676.592452  0.634719 -4.074899 75.685620
     spin moment: S , {S} =   10.68169       0.0       0.0  10.68169
   scf:    3   -15553.123188   -15344.468299   -15344.468528  0.726051 -4.062285 20.320231
     spin moment: S , {S} =    5.99995       0.0       0.0   5.99995
   scf:    4   -15345.187071   -15364.979098   -15364.999143  0.607473 -3.380648 14.469205
     spin moment: S , {S} =    4.25906       0.0       0.0   4.25906
   scf:    5   -15360.235391   -15373.468679   -15373.474906  0.645310 -3.265468 10.639769
     spin moment: S , {S} =    3.99377       0.0       0.0   3.99377
   scf:    6   -15379.691706   -15378.583460   -15378.604885  0.216735 -3.028983  3.253544
     spin moment: S , {S} =    2.26378       0.0       0.0   2.26378
   scf:    7   -15379.954066   -15379.697904   -15379.701659  0.031865 -2.984199  2.750082
     spin moment: S , {S} =    2.02675       0.0       0.0   2.02675
   scf:    8   -15379.893803   -15380.013752   -15380.014229  0.027678 -2.967339  1.744543
     spin moment: S , {S} =    2.00018       0.0       0.0   2.00018
   scf:    9   -15380.082140   -15380.205392   -15380.205684  0.022142 -3.036960  1.406327
     spin moment: S , {S} =    1.99933       0.0       0.0   1.99933
   scf:   10   -15380.154858   -15380.283514   -15380.284384  0.019339 -3.048793  1.150190
     spin moment: S , {S} =    1.99537       0.0       0.0   1.99537
   scf:   11   -15380.282025   -15380.341050   -15380.343437  0.012095 -3.055595  0.823746
     spin moment: S , {S} =    1.98426       0.0       0.0   1.98426
   scf:   12   -15380.377355   -15380.380679   -15380.385936  0.013483 -3.061958  0.506063
     spin moment: S , {S} =    1.95814       0.0       0.0   1.95814
   scf:   13   -15380.410325   -15380.403725   -15380.417279  0.006011 -3.073324  0.394867
     spin moment: S , {S} =    1.85337       0.0       0.0   1.85337
   scf:   14   -15380.412942   -15380.418232   -15380.443386  0.012358 -3.083983  0.534504
     spin moment: S , {S} =    1.61961       0.0       0.0   1.61961
   scf:   15   -15380.417788   -15380.428886   -15380.456606  0.007170 -3.087461  0.391436
     spin moment: S , {S} =    1.54522       0.0       0.0   1.54522
   scf:   16   -15380.444902   -15380.442435   -15380.475355  0.009467 -3.092854  0.293532
     spin moment: S , {S} =    1.33291       0.0       0.0   1.33291
   scf:   17   -15380.458509   -15380.451722   -15380.486644  0.008883 -3.095917  0.219741
     spin moment: S , {S} =    1.18828       0.0       0.0   1.18828
   scf:   18   -15380.466499   -15380.459693   -15380.495483  0.005364 -3.098448  0.143218
     spin moment: S , {S} =    1.04874       0.0       0.0   1.04874
   scf:   19   -15380.481606   -15380.471263   -15380.506134  0.010688 -3.101944  0.234763
     spin moment: S , {S} =    0.80206       0.0       0.0   0.80206
   scf:   20   -15380.475948   -15380.474892   -15380.509325  0.003836 -3.102251  0.162790
     spin moment: S , {S} =    0.76152       0.0       0.0   0.76152
   scf:   21   -15380.482979   -15380.479497   -15380.512838  0.002741 -3.102815  0.137373
     spin moment: S , {S} =    0.68366       0.0       0.0   0.68366
   scf:   22   -15380.489292   -15380.484526   -15380.516213  0.004267 -3.103389  0.134783
     spin moment: S , {S} =    0.59265       0.0       0.0   0.59265
   scf:   23   -15380.486457   -15380.485699   -15380.517084  0.001053 -3.103420  0.077036
     spin moment: S , {S} =    0.57735       0.0       0.0   0.57735
   scf:   24   -15380.495476   -15380.490608   -15380.519918  0.003812 -3.103755  0.105937
     spin moment: S , {S} =    0.48526       0.0       0.0   0.48526
   scf:   25   -15380.496722   -15380.493753   -15380.521694  0.003157 -3.103797  0.080522
     spin moment: S , {S} =    0.42707       0.0       0.0   0.42707
   scf:   26   -15380.495728   -15380.494886   -15380.522343  0.000930 -3.103701  0.068139
     spin moment: S , {S} =    0.40565       0.0       0.0   0.40565
   scf:   27   -15380.498661   -15380.496853   -15380.523336  0.002117 -3.103660  0.069543
     spin moment: S , {S} =    0.36289       0.0       0.0   0.36289
   scf:   28   -15380.497757   -15380.497354   -15380.523664  0.000690 -3.103597  0.042132
     spin moment: S , {S} =    0.35333       0.0       0.0   0.35333
   scf:   29   -15380.499768   -15380.498554   -15380.524289  0.001108 -3.103462  0.049066
     spin moment: S , {S} =    0.32347       0.0       0.0   0.32347
   scf:   30   -15380.501739   -15380.500120   -15380.525160  0.002035 -3.103222  0.046142
     spin moment: S , {S} =    0.27716       0.0       0.0   0.27716
   scf:   31   -15380.500664   -15380.500454   -15380.525366  0.000705 -3.103088  0.044244
     spin moment: S , {S} =    0.26409       0.0       0.0   0.26409
   scf:   32   -15380.501779   -15380.501153   -15380.525775  0.001035 -3.102947  0.037527
     spin moment: S , {S} =    0.23881       0.0       0.0   0.23881
   scf:   33   -15380.501686   -15380.501426   -15380.525940  0.000578 -3.102870  0.025928
     spin moment: S , {S} =    0.22770       0.0       0.0   0.22770
   scf:   34   -15380.501919   -15380.501671   -15380.526094  0.000415 -3.102773  0.022774
     spin moment: S , {S} =    0.21626       0.0       0.0   0.21626
   scf:   35   -15380.502907   -15380.502263   -15380.526485  0.001316 -3.102506  0.022052
     spin moment: S , {S} =    0.18162       0.0       0.0   0.18162
   scf:   36   -15380.502504   -15380.502394   -15380.526587  0.000507 -3.102406  0.023060
     spin moment: S , {S} =    0.17129       0.0       0.0   0.17129
   scf:   37   -15380.503083   -15380.502719   -15380.526865  0.001061 -3.102145  0.015396
     spin moment: S , {S} =    0.13888       0.0       0.0   0.13888
   scf:   38   -15380.502870   -15380.502799   -15380.526855  0.000183 -3.102175  0.013783
     spin moment: S , {S} =    0.14015       0.0       0.0   0.14015
   scf:   39   -15380.502971   -15380.502883   -15380.526925  0.000340 -3.102099  0.009696
     spin moment: S , {S} =    0.13106       0.0       0.0   0.13106
   scf:   40   -15380.503194   -15380.503033   -15380.527025  0.000532 -3.101984  0.011586
     spin moment: S , {S} =    0.11596       0.0       0.0   0.11596
   scf:   41   -15380.503312   -15380.503166   -15380.527144  0.000748 -3.101828  0.008119
     spin moment: S , {S} =    0.09611       0.0       0.0   0.09611
   scf:   42   -15380.503402   -15380.503252   -15380.527285  0.001223 -3.101564  0.008313
     spin moment: S , {S} =    0.06070       0.0       0.0   0.06070
   scf:   43   -15380.503397   -15380.503324   -15380.527237  0.000511 -3.101690  0.007324
     spin moment: S , {S} =    0.07595       0.0       0.0   0.07595
   scf:   44   -15380.503398   -15380.503359   -15380.527274  0.000353 -3.101626  0.004751
     spin moment: S , {S} =    0.06661       0.0       0.0   0.06661
   scf:   45   -15380.503431   -15380.503394   -15380.527298  0.000231 -3.101584  0.005037
     spin moment: S , {S} =    0.06000       0.0       0.0   0.06000
   scf:   46   -15380.503530   -15380.503451   -15380.527353  0.000723 -3.101466  0.002860
     spin moment: S , {S} =    0.04023       0.0       0.0   0.04023
   scf:   47   -15380.503458   -15380.503426   -15380.527399  0.001117 -3.101314  0.003824
     spin moment: S , {S} =    0.00907       0.0       0.0   0.00907
   scf:   48   -15380.503602   -15380.503507   -15380.527383  0.000584 -3.101400  0.002722
     spin moment: S , {S} =    0.02578       0.0       0.0   0.02578
   scf:   49   -15380.503535   -15380.503520   -15380.527389  0.000161 -3.101387  0.001557
     spin moment: S , {S} =    0.02184       0.0       0.0   0.02184
   scf:   50   -15380.503541   -15380.503530   -15380.527394  0.000124 -3.101376  0.001372
     spin moment: S , {S} =    0.01861       0.0       0.0   0.01861
   scf:   51   -15380.503586   -15380.503556   -15380.527404  0.000305 -3.101354  0.000880
     spin moment: S , {S} =    0.01111       0.0       0.0   0.01111

SCF Convergence by DM+H criterion
max |DM_out - DM_in|         :     0.0003050807
max |H_out - H_in|      (eV) :     0.0008804630
SCF cycle converged after 51 iterations

Using DM_out to compute the final energy and forces
No. of atoms with KB's overlaping orbs in proc 0. Max # of overlaps:     178     202

siesta: E_KS(eV) =           -15380.5036

siesta: E_KS - E_eggbox =    -15380.5036
     spin moment: S , {S} =    0.01111       0.0       0.0   0.01111

siesta: Atomic forces (eV/Ang):
     1    0.633295    0.126730    0.044460
     2   -0.422379    1.116440    0.254464
     3    0.531657   -0.167256   -0.059702
     4   -0.465123    0.096132   -0.125163
     5    0.729543   -0.655310   -0.321789
     6   -1.405506    0.779891    0.163772
     7   -0.229321    0.560851    0.130056
     8    0.538648    0.497673    0.098141
     9   -2.476730    0.862838    0.372998
    10    0.555707   -2.523361   -0.541284
    11    0.874448    0.747533    0.272845
    12    0.718470    0.720262    0.206812
    13    0.751218   -1.085587   -0.586950
    14   -0.813555    0.551310    0.278940
    15    0.018007   -0.427535    0.252567
    16    0.111025   -1.682919    0.010688
    17   -0.791648   -0.139420   -0.488564
    18   -0.347796    0.667334    0.393252
    19    0.528367    0.967792   -0.234737
    20    1.026056    0.395695    0.481307
    21    0.402313   -0.690279   -0.258818
    22   -1.186061    1.104418    0.555775
    23    0.986913   -1.207036   -0.532322
    24   -0.894271    0.205765    0.105924
    25    0.724051   -0.511924    0.664735
    26   -0.719633    0.746455    0.249834
    27    0.099128   -0.353895   -0.881852
    28    0.960557    0.207223   -0.009424
    29    0.596220   -0.271535   -0.876597
    30   -0.741040    0.344195    0.969210
    31    0.939863    0.400135   -0.419646
    32   -0.304319   -0.798555   -0.443565
    33    0.076005   -0.592782    0.848616
    34   -1.288451   -0.400134   -0.429456
    35    1.099172    0.483015    0.126052
    36    0.286896   -0.900973   -0.482401
    37   -0.546183    0.529741   -0.283401
    38    0.441370   -0.563712    0.737597
    39   -0.678643    0.589124    0.192529
    40   -2.416383   -0.335311   -1.496619
    41   -0.175168   -0.259185   -0.930374
    42    0.225317    0.192605    1.016006
    43   -0.238463   -0.627410   -0.517961
    44   -0.835439   -0.281525   -0.111422
    45    0.384540    0.728816    0.177260
    46    0.926368    0.308117   -0.043788
    47    0.629792    0.272948    0.308092
    48    0.523286   -0.323245    0.255145
    49   -0.230020   -0.257420   -0.622671
    50   -0.268525   -0.650390    0.076102
    51   -0.798803    0.324067    0.217913
    52   -0.206984   -0.478891   -0.623884
    53   -0.500670    0.415713    0.225144
    54    0.525995   -0.648620   -0.248082
    55    0.025429   -0.321737   -0.580103
    56   -0.485042    0.729013    0.181154
    57    0.663705   -0.430055   -0.208373
    58   -0.406512    0.586555    0.093592
    59    0.733301    0.283871    0.134975
    60   -0.196735   -0.438301    0.435570
    61   -0.461693    0.612108    0.057049
    62   -0.133794   -0.415096    0.401821
    63   -0.108889   -0.229633   -0.678843
    64    0.251001    0.553487    0.466389
    65   -0.662918   -0.266113    0.187499
    66   -0.161910   -0.472827   -0.482893
    67    0.667778    0.255536   -0.200244
    68   -0.662853   -0.357356    0.290277
    69    0.661016    0.208618   -0.173707
    70    0.120168   -0.219708    0.708714
    71   -0.371375    0.457954   -0.034597
    72    0.619981    0.188522   -0.241854
    73   -0.345432    0.444162    0.097635
    74   -0.207396   -0.445286   -0.486907
    75    0.275240    0.837683   -0.236994
    76    0.556311   -0.500826    0.237165
    77   -0.293661   -0.729826    0.074512
    78   -0.581342    0.401952   -0.407095
    79   -0.543598    0.052314    0.393028
    80    0.164020    0.689837   -0.097148
    81   -0.129594   -0.689079    0.056827
    82    0.183857    0.135373    0.643708
    83    0.604165   -0.017702   -0.364826
    84    0.094676    0.716976   -0.062373
    85   -0.680084   -0.085548   -0.263599
    86    0.590335    0.110867    0.352211
    87    0.168197    0.008230   -0.586624
    88   -0.169720   -0.674445    0.200946
    89    0.147280   -0.181494   -0.091057
    90    0.751336   -0.199535    0.167379
    91   -0.526780    0.211635    0.405655
    92   -0.634411   -0.008578   -0.380293
    93    0.431861   -0.321882   -0.509122
    94   -0.414759    0.172141    0.505017
    95    0.083168    0.535004   -0.336437
    96    0.572410   -0.088710    0.319751
    97   -2.961436  -39.381591  -29.365670
    98  -53.290919   23.651080    6.095929
    99   -2.412601   33.050771   23.619563
   100   -0.962289  -26.001794  -19.164310
   101   -0.695471   27.012256   19.569970
   102   -0.632405  -26.105535  -19.179209
   103    0.349556   25.863029   18.960177
   104   -0.460776  -25.842383  -18.936583
   105    0.391500   25.874039   18.976161
   106   -0.435005  -25.880839  -18.969568
   107    0.428185   25.847289   18.953234
   108   -0.461520  -25.880323  -18.976121
   109    0.496067   25.834880   18.971267
   110   -0.563522  -25.892590  -18.994157
   111    0.670522   25.783767   18.956988
   112   -0.609322  -25.894537  -19.017394
   113    0.963407   25.826373   19.052356
   114   -1.607064  -26.073721  -19.347814
   115    1.469387   25.115868   18.644822
   116    3.009547  -26.616600  -18.772450
   117   10.784299   32.339052   25.857430
   118   46.460567  -22.878805   -6.936012
   119    0.310131   -0.485430   -0.604604
   120   -0.357827   -0.003085    0.208856
   121    0.114903   -0.146712    0.221166
   122    0.431691    0.887885   -0.553383
   123   -0.583201    0.691802   -0.434990
   124    0.771298   -0.896993    0.378437
   125   -1.176628   -0.299112    0.405430
   126    1.061769   -0.009144    0.402561
   127   -0.718031    0.567284    0.383178
   128   -0.766055   -0.495782   -1.480946
   129    0.282684    0.561275    1.012572
   130   -0.123380   -0.780695   -1.405575
   131    0.470906    0.136358    0.827376
   132   -0.575184    0.401190    0.098967
   133    1.017879    0.260635   -0.160654
   134   -0.511064    1.102355   -0.447433
   135    0.466412   -1.182687    0.504460
   136    0.272977    0.710691   -0.661858
   137   -0.839306    0.195577    0.371899
   138   -0.350649   -0.909947   -0.363607
   139   -0.234046    0.663335   -0.175666
   140    0.358795    0.368741    0.663490
   141   -0.584211   -0.446077    0.410368
   142    0.357051    0.198627   -0.488156
   143   -0.213755    0.400893    0.595030
   144    0.388250   -0.629708   -0.023729
   145   -0.593940   -0.270605   -0.187910
   146   -0.210013   -1.276018   -0.091802
   147    0.778576    0.076394    0.162767
   148    0.158529    0.630320   -0.087245
   149   -0.774020    0.065972   -0.026468
   150    0.722032   -0.256570    0.274043
   151    0.082417    0.181770   -0.533950
   152   -0.701825    0.139962   -0.339526
   153    0.672612   -0.202493    0.353922
   154    0.195541    0.338509   -0.452386
   155   -0.252193   -0.612573   -0.216773
   156   -0.322825    0.494712    0.646352
   157    0.715183    0.021243    0.691113
   158    0.391078   -0.492756   -0.455822
   159   -0.619304    0.008617   -0.534197
   160   -0.448070    0.573928    0.545061
   161    0.776917    0.004743    0.745145
   162   -0.553585    0.049460   -0.292972
   163    0.110909   -0.557748    0.456643
   164    0.656378    0.324374   -0.121048
   165   -0.049235   -0.263868   -0.556718
   166   -0.282140   -0.563079   -0.159523
   167   -0.501009    0.502733    0.233331
   168    0.752364   -0.457491   -0.284351
   169   -0.262813   -0.419819    0.452674
   170   -0.566605    0.412231    0.372475
   171    0.340456    0.682460   -1.033176
   172   -0.204967   -0.348917    0.676046
   173   -0.020052   -0.680074   -0.024652
   174    0.559200    0.141142    0.376532
   175    0.063147    0.181998   -0.684874
   176    0.192463    0.169937   -0.434583
   177    0.581548    0.031665    0.612873
   178   -0.560664    0.487985    0.248722
----------------------------------------
   Tot   -1.921947   -1.064185   -1.884926
----------------------------------------
   Max   53.290919
   Res    7.477571    sqrt( Sum f_i^2 / 3N )
----------------------------------------
   Max   53.290919    constrained

Stress tensor Voigt[x,y,z,yz,xz,xy] (kbar):      -59.06       -9.83       -6.54       -5.44       -8.64        4.62
(Free)E + p*V (eV/cell)   -14934.4104
Target enthalpy (eV/cell)   -15380.5274

siesta: Stress tensor (static) (eV/Ang**3):
        -0.036691    0.002900   -0.005381
         0.002900   -0.005972   -0.003377
        -0.005381   -0.003377   -0.003943

siesta: Pressure (static):         24.89045823  kBar

siesta: Stress tensor (total) (eV/Ang**3):
        -0.036863    0.002881   -0.005395
         0.002881   -0.006138   -0.003394
        -0.005395   -0.003394   -0.004084

siesta: Pressure (total):         25.14651503  kBar

mulliken: Atomic and Orbital Populations:

mulliken: Spin UP 

Species: C                   
Atom  Qatom  Qorb
               2s      2s      2py     2pz     2px     2py     2pz     2px     
               3Pdxy   3Pdyz   3Pdz2   3Pdxz   3Pdx2-y2
   1  1.995   0.221   0.267   0.243   0.355   0.227   0.237   0.108   0.255
              0.024   0.013   0.005   0.017   0.024
   2  1.986   0.216   0.266   0.224   0.361   0.227   0.254   0.106   0.251
              0.024   0.014   0.004   0.016   0.023
   3  1.911   0.166   0.291   0.266   0.395   0.062   0.226   0.080   0.363
              0.016   0.014   0.004   0.005   0.023
   4  1.960   0.220   0.268   0.221   0.353   0.221   0.244   0.102   0.246
              0.024   0.015   0.004   0.016   0.025
   5  1.906   0.166   0.292   0.099   0.368   0.240   0.332   0.098   0.248
              0.019   0.006   0.002   0.015   0.020
   6  1.988   0.218   0.269   0.237   0.361   0.230   0.237   0.105   0.249
              0.024   0.013   0.005   0.019   0.024
   7  1.998   0.221   0.265   0.242   0.362   0.216   0.245   0.106   0.262
              0.022   0.013   0.004   0.017   0.024
   8  2.091   0.266   0.238   0.252   0.383   0.327   0.241   0.093   0.175
              0.042   0.015   0.004   0.025   0.030
  10  2.046   0.280   0.242   0.305   0.350   0.264   0.188   0.092   0.212
              0.029   0.019   0.006   0.018   0.040
  11  1.992   0.218   0.266   0.249   0.354   0.231   0.224   0.121   0.248
              0.022   0.011   0.008   0.018   0.023
  12  1.987   0.216   0.269   0.248   0.351   0.217   0.231   0.116   0.255
              0.023   0.013   0.007   0.019   0.024
  13  1.991   0.217   0.266   0.247   0.352   0.232   0.229   0.117   0.246
              0.023   0.013   0.008   0.017   0.023
  14  1.912   0.167   0.290   0.265   0.388   0.066   0.226   0.089   0.358
              0.016   0.015   0.005   0.005   0.023
  15  1.982   0.231   0.266   0.241   0.334   0.223   0.233   0.118   0.247
              0.024   0.015   0.007   0.016   0.025
  16  1.981   0.231   0.265   0.223   0.366   0.221   0.246   0.093   0.254
              0.025   0.017   0.004   0.016   0.022
  17  1.883   0.129   0.325   0.229   0.192   0.151   0.222   0.253   0.290
              0.018   0.020   0.015   0.021   0.017
  18  1.809   0.067   0.358   0.165   0.142   0.143   0.270   0.299   0.294
              0.020   0.016   0.014   0.011   0.011
  19  1.852   0.124   0.326   0.097   0.225   0.215   0.326   0.220   0.228
              0.015   0.014   0.023   0.021   0.018
  20  1.807   0.049   0.366   0.235   0.082   0.128   0.223   0.341   0.311
              0.013   0.015   0.011   0.014   0.018
  21  1.909   0.171   0.290   0.180   0.354   0.185   0.272   0.115   0.280
              0.023   0.007   0.005   0.014   0.014
  22  1.971   0.222   0.265   0.250   0.337   0.213   0.219   0.130   0.255
              0.023   0.011   0.009   0.018   0.020
  23  2.032   0.251   0.242   0.264   0.361   0.229   0.235   0.123   0.190
              0.037   0.013   0.014   0.035   0.038
  24  1.911   0.166   0.286   0.195   0.377   0.163   0.262   0.115   0.290
              0.021   0.006   0.005   0.012   0.012
  25  1.803   0.052   0.367   0.151   0.120   0.166   0.290   0.313   0.277
              0.019   0.008   0.018   0.011   0.010
  26  1.838   0.118   0.326   0.131   0.216   0.175   0.296   0.226   0.262
              0.021   0.016   0.021   0.017   0.013
  27  1.706  -0.030   0.403   0.081   0.179   0.061   0.339   0.266   0.358
              0.009   0.013   0.010   0.010   0.006
  28  1.710  -0.014   0.396   0.076   0.064   0.176   0.344   0.355   0.263
              0.015   0.010   0.009   0.009   0.007
  29  1.793   0.049   0.364   0.186   0.142   0.116   0.264   0.287   0.316
              0.014   0.018   0.012   0.013   0.012
  30  1.800   0.068   0.357   0.178   0.140   0.119   0.270   0.286   0.312
[...]
Number of DMs in history: 1
 DM extrapolation coefficients: 
1   1.00000
New DM after history re-use:
<dSpData2D:SpM extrapolated using coords
  <sparsity:sparsity for geom step 3
    nrows_g=1570 nrows=1570 sparsity=.1612 nnzs=397460, refcount: 9>
  <dData2D:(temp array for extrapolation) n=397460 m=2, refcount: 1>
refcount: 1>
     spin moment: S , {S} =    0.02396       0.0       0.0   0.02396
Note: For starting DM, Qtot, Tr[D*S] =        436.00000000        434.21574064
No. of atoms with KB's overlaping orbs in proc 0. Max # of overlaps:     178     202

InitMesh: MESH = 180 x 180 x 240 = 7776000
InitMesh: Mesh cutoff (required, used) =   100.000   113.518 Ry
New grid distribution [1]: sub = 2

        iscf     Eharris(eV)        E_KS(eV)     FreeEng(eV)     dDmax    Ef(eV) dHmax(eV)
   scf:    1   -13136.128239   -14665.576903   -14665.647546  0.459068 -4.776055 72.882209
     spin moment: S , {S} =    0.03243       0.0       0.0   0.03243
   scf:    2   226090.434073    62683.214381    62683.162420  7.049128-23.306929906.241729
     spin moment: S , {S} =    0.00000       0.0       0.0   0.00000
   scf:    3   -19487.924440   -13536.327789   -13536.395843  7.037410 -1.862605139.250613
     spin moment: S , {S} =    0.00016       0.0       0.0   0.00016
   scf:    4   -15817.719494   -15258.720978   -15258.794253  1.496520 -2.041502 43.088129
     spin moment: S , {S} =    0.01508       0.0       0.0   0.01508
   scf:    5   -14441.455922   -15147.989212   -15147.989317  0.647226 -3.904395 55.371386
     spin moment: S , {S} =    0.00001       0.0       0.0   0.00001
   scf:    6   -14346.948971   -15144.352060   -15144.396981  0.587193 -3.238137 52.079444
     spin moment: S , {S} =    0.00779       0.0       0.0   0.00779
   scf:    7   -15430.154822   -15404.666927   -15404.736272  0.347320 -3.020234 13.211604
     spin moment: S , {S} =    0.03364       0.0       0.0   0.03364
   scf:    8   -15278.034338   -15376.544771   -15376.547573  0.322299 -3.063492 25.298636
     spin moment: S , {S} =    0.00056       0.0       0.0   0.00056
   scf:    9   -15247.982536   -15370.397092   -15370.419473  0.346787 -3.586450 24.304896
     spin moment: S , {S} =    0.00961       0.0       0.0   0.00961
   scf:   10   -15423.332983   -15415.406021   -15415.430874  0.246712 -3.254349  4.414030
     spin moment: S , {S} =    0.01051       0.0       0.0   0.01051
   scf:   11   -15394.643618   -15410.474166   -15410.478189  0.134464 -3.342458  9.314230
     spin moment: S , {S} =    0.00115       0.0       0.0   0.00115
   scf:   12   -15369.482959   -15400.887723   -15400.913038  0.187551 -3.364496 15.840068
     spin moment: S , {S} =    0.00838       0.0       0.0   0.00838
   scf:   13   -15404.969405   -15414.945278   -15414.999653  0.199247 -3.350985  6.171694
     spin moment: S , {S} =    0.03022       0.0       0.0   0.03022
   scf:   14   -15394.605210   -15410.260561   -15410.269829  0.174917 -3.474589 10.774636
     spin moment: S , {S} =    0.00292       0.0       0.0   0.00292
   scf:   15   -15392.297910   -15409.285959   -15409.288880  0.192261 -3.466336 11.146137
     spin moment: S , {S} =    0.00077       0.0       0.0   0.00077
   scf:   16   -15356.547082   -15396.895145   -15396.901632  0.210599 -3.438386 18.059497
     spin moment: S , {S} =    0.00188       0.0       0.0   0.00188
   scf:   17   -15279.190182   -15376.825585   -15376.825701  0.387809 -3.478734 26.994718
     spin moment: S , {S} =    0.00002       0.0       0.0   0.00002
   scf:   18   -15359.893070   -15399.150359   -15399.156173  0.391581 -3.525687 18.498101
     spin moment: S , {S} =    0.00112       0.0       0.0   0.00112
   scf:   19   -15338.408304   -15394.670655   -15394.673389  0.318111 -3.613656 20.342631
     spin moment: S , {S} =    0.00044       0.0       0.0   0.00044
   scf:   20   -15247.667292   -15366.705373   -15366.712959  0.317999 -3.488470 28.173597
     spin moment: S , {S} =    0.00111       0.0       0.0   0.00111
   scf:   21   -15282.375971   -15379.574282   -15379.574456  0.402784 -3.512703 26.424036
     spin moment: S , {S} =    0.00002       0.0       0.0   0.00002
   scf:   22   -15327.279794   -15392.240242   -15392.247799  0.407298 -3.588867 21.742013
     spin moment: S , {S} =    0.00094       0.0       0.0   0.00094
   scf:   23   -15321.630907   -15390.422714   -15390.436753  0.349287 -3.693527 21.957948
     spin moment: S , {S} =    0.00211       0.0       0.0   0.00211
   scf:   24   -15285.474475   -15376.361649   -15376.364341  0.325020 -3.480801 25.473495
     spin moment: S , {S} =    0.00017       0.0       0.0   0.00017
   scf:   25   -15240.466583   -15367.494885   -15367.494948  0.424900 -3.536996 30.457818
     spin moment: S , {S} =    0.00000       0.0       0.0   0.00000
   scf:   26   -15309.560361   -15387.620451   -15387.633026  0.432701 -3.642338 23.554448
     spin moment: S , {S} =    0.00108       0.0       0.0   0.00108
   scf:   27   -15329.463755   -15392.503792   -15392.509816  0.351496 -3.700745 21.059796
     spin moment: S , {S} =    0.00052       0.0       0.0   0.00052
   scf:   28   -15264.692826   -15370.721988   -15370.725453  0.322723 -3.498391 27.336794
     spin moment: S , {S} =    0.00015       0.0       0.0   0.00015
   scf:   29   -15230.439277   -15364.313697   -15364.313766  0.424954 -3.582741 31.178654
     spin moment: S , {S} =    0.00000       0.0       0.0   0.00000
   scf:   30   -15312.034990   -15387.818789   -15387.829821  0.432021 -3.650607 23.461826
     spin moment: S , {S} =    0.00057       0.0       0.0   0.00057
   scf:   31   -15320.657149   -15390.368231   -15390.378293  0.353563 -3.734656 21.675067
     spin moment: S , {S} =    0.00067       0.0       0.0   0.00067
   scf:   32   -15266.571452   -15371.178302   -15371.181303  0.325135 -3.502598 27.233686
     spin moment: S , {S} =    0.00008       0.0       0.0   0.00008
   scf:   33   -15233.652210   -15365.016998   -15365.017068  0.421891 -3.587673 30.990786
     spin moment: S , {S} =    0.00000       0.0       0.0   0.00000
   scf:   34   -15296.892582   -15383.802831   -15383.818382  0.430109 -3.676497 24.631390
     spin moment: S , {S} =    0.00058       0.0       0.0   0.00058
   scf:   35   -15321.527757   -15390.574444   -15390.583941  0.354083 -3.739872 21.433871
     spin moment: S , {S} =    0.00045       0.0       0.0   0.00045
   scf:   36   -15265.923901   -15370.851691   -15370.854611  0.322505 -3.504163 27.428014
     spin moment: S , {S} =    0.00004       0.0       0.0   0.00004
   scf:   37   -15219.589932   -15360.931080   -15360.931141  0.429450 -3.607590 32.089148
     spin moment: S , {S} =    0.00000       0.0       0.0   0.00000
   scf:   38   -15296.550714   -15383.455730   -15383.471626  0.437077 -3.686673 24.758317
     spin moment: S , {S} =    0.00038       0.0       0.0   0.00038
   scf:   39   -15319.702329   -15390.148571   -15390.158098  0.355306 -3.749348 21.493052
     spin moment: S , {S} =    0.00033       0.0       0.0   0.00033
   scf:   40   -15261.816171   -15369.735421   -15369.738387  0.323264 -3.507101 27.812119
     spin moment: S , {S} =    0.00003       0.0       0.0   0.00003
   scf:   41   -15221.586276   -15361.427496   -15361.427562  0.427673 -3.613840 31.918742
     spin moment: S , {S} =    0.00000       0.0       0.0   0.00000
   scf:   42   -15291.771727   -15382.088391   -15382.105808  0.435171 -3.695751 25.120788
     spin moment: S , {S} =    0.00029       0.0       0.0   0.00029
   scf:   43   -15318.134084   -15389.748720   -15389.758996  0.356181 -3.755449 21.644563
     spin moment: S , {S} =    0.00028       0.0       0.0   0.00028
   scf:   44   -15262.679153   -15369.894580   -15369.897462  0.322952 -3.507418 27.797921
     spin moment: S , {S} =    0.00002       0.0       0.0   0.00002
   scf:   45   -15217.268726   -15360.167669   -15360.167731  0.430190 -3.619185 32.262985
     spin moment: S , {S} =    0.00000       0.0       0.0   0.00000
   scf:   46   -15288.714022   -15381.175766   -15381.194185  0.437522 -3.703428 25.378631
     spin moment: S , {S} =    0.00021       0.0       0.0   0.00021
   scf:   47   -15317.949367   -15389.714556   -15389.724508  0.357054 -3.757835 21.671045
     spin moment: S , {S} =    0.00020       0.0       0.0   0.00020
   scf:   48   -15261.081105   -15369.436582   -15369.439485  0.322508 -3.508177 27.966521
     spin moment: S , {S} =    0.00001       0.0       0.0   0.00001
   scf:   49   -15215.768520   -15359.710781   -15359.710843  0.430901 -3.623775 32.370175
     spin moment: S , {S} =    0.00000       0.0       0.0   0.00000
   scf:   50   -15287.481325   -15380.770067   -15380.788980  0.438033 -3.707290 25.485022
     spin moment: S , {S} =    0.00015       0.0       0.0   0.00015
   scf:   51   -15317.062275   -15389.492620   -15389.502838  0.357598 -3.760981 21.766613
     spin moment: S , {S} =    0.00016       0.0       0.0   0.00016
   scf:   52   -15260.832748   -15369.348248   -15369.351132  0.322576 -3.508510 28.008405
     spin moment: S , {S} =    0.00001       0.0       0.0   0.00001
   scf:   53   -15215.015578   -15359.479528   -15359.479589  0.431305 -3.625755 32.429563
     spin moment: S , {S} =    0.00000       0.0       0.0   0.00000
   scf:   54   -15285.617829   -15380.227403   -15380.246889  0.438359 -3.711038 25.629355
     spin moment: S , {S} =    0.00011       0.0       0.0   0.00011
   scf:   55   -15316.820449   -15389.434707   -15389.444898  0.358095 -3.762230 21.795134
     spin moment: S , {S} =    0.00013       0.0       0.0   0.00013
   scf:   56   -15260.532335   -15369.247131   -15369.250011  0.322299 -3.508660 28.053155
     spin moment: S , {S} =    0.00000       0.0       0.0   0.00000
   scf:   57   -15213.807037   -15359.123160   -15359.123221  0.431983 -3.627818 32.521397
     spin moment: S , {S} =    0.00000       0.0       0.0   0.00000
   scf:   58   -15284.866997   -15379.987202   -15380.006966  0.438941 -3.713224 25.693391
     spin moment: S , {S} =    0.00008       0.0       0.0   0.00008
   scf:   59   -15316.531198   -15389.364217   -15389.374420  0.358416 -3.763391 21.826594
     spin moment: S , {S} =    0.00010       0.0       0.0   0.00010
   scf:   60   -15260.196890   -15369.148034   -15369.150913  0.322248 -3.508821 28.091549
     spin moment: S , {S} =    0.00000       0.0       0.0   0.00000
   scf:   61   -15213.463659   -15359.016299   -15359.016359  0.432158 -3.628958 32.546796
     spin moment: S , {S} =    0.00000       0.0       0.0   0.00000
   scf:   62   -15284.124564   -15379.764170   -15379.784173  0.439062 -3.714839 25.751225
     spin moment: S , {S} =    0.00006       0.0       0.0   0.00006
   scf:   63   -15316.323212   -15389.312634   -15389.322870  0.358657 -3.764151 21.849352
     spin moment: S , {S} =    0.00008       0.0       0.0   0.00008
   scf:   64   -15260.105680   -15369.114357   -15369.117232  0.322168 -3.508875 28.107880
     spin moment: S , {S} =    0.00000       0.0       0.0   0.00000
   scf:   65   -15212.985709   -15358.874551   -15358.874611  0.432431 -3.629786 32.583552
     spin moment: S , {S} =    0.00000       0.0       0.0   0.00000
   scf:   66   -15283.627724   -15379.613087   -15379.633251  0.439295 -3.716006 25.791012
     spin moment: S , {S} =    0.00005       0.0       0.0   0.00005
   scf:   67   -15316.214982   -15389.286606   -15389.296832  0.358833 -3.764606 21.861349
     spin moment: S , {S} =    0.00007       0.0       0.0   0.00007
   scf:   68   -15259.956876   -15369.069132   -15369.072007  0.322104 -3.508927 28.125982
     spin moment: S , {S} =    0.00000       0.0       0.0   0.00000
   scf:   69   -15212.719354   -15358.794359   -15358.794419  0.432576 -3.630395 32.603458
     spin moment: S , {S} =    0.00000       0.0       0.0   0.00000
   scf:   70   -15283.319029   -15379.517638   -15379.537906  0.439411 -3.716754 25.815727
     spin moment: S , {S} =    0.00004       0.0       0.0   0.00004
   scf:   71   -15316.109865   -15389.260632   -15389.270869  0.358950 -3.764976 21.872696
     spin moment: S , {S} =    0.00006       0.0       0.0   0.00006
   scf:   72   -15259.887193   -15369.046656   -15369.049530  0.322076 -3.508955 28.135636
     spin moment: S , {S} =    0.00000       0.0       0.0   0.00000
   scf:   73   -15212.542996   -15358.741306   -15358.741366  0.432676 -3.630770 32.616894
     spin moment: S , {S} =    0.00000       0.0       0.0   0.00000
   scf:   74   -15283.065713   -15379.441258   -15379.461606  0.439491 -3.717311 25.835590
     spin moment: S , {S} =    0.00003       0.0       0.0   0.00003
   scf:   75   -15316.051930   -15389.246501   -15389.256738  0.359037 -3.765194 21.879056
     spin moment: S , {S} =    0.00005       0.0       0.0   0.00005
   scf:   76   -15259.833534   -15369.029452   -15369.032325  0.322043 -3.508970 28.142950
     spin moment: S , {S} =    0.00000       0.0       0.0   0.00000
   scf:   77   -15212.395825   -15358.697399   -15358.697459  0.432759 -3.631055 32.628032
     spin moment: S , {S} =    0.00000       0.0       0.0   0.00000
   scf:   78   -15282.912163   -15379.393927   -15379.414325  0.439559 -3.717678 25.847894
     spin moment: S , {S} =    0.00002       0.0       0.0   0.00002
   scf:   79   -15316.007146   -15389.235532   -15389.245770  0.359095 -3.765356 21.883906
     spin moment: S , {S} =    0.00004       0.0       0.0   0.00004
   scf:   80   -15259.791839   -15369.016522   -15369.019394  0.322027 -3.508982 28.148260
     spin moment: S , {S} =    0.00000       0.0       0.0   0.00000
   scf:   81   -15212.312684   -15358.672328   -15358.672388  0.432805 -3.631240 32.634296
     spin moment: S , {S} =    0.00000       0.0       0.0   0.00000
   scf:   82   -15282.797699   -15379.359097   -15379.379532  0.439596 -3.717935 25.856903
     spin moment: S , {S} =    0.00002       0.0       0.0   0.00002
   scf:   83   -15315.976043   -15389.227882   -15389.238121  0.359136 -3.765465 21.887278
     spin moment: S , {S} =    0.00003       0.0       0.0   0.00003
   scf:   84   -15259.768241   -15369.008877   -15369.011749  0.322014 -3.508988 28.151548
     spin moment: S , {S} =    0.00000       0.0       0.0   0.00000
   scf:   85   -15212.246323   -15358.652494   -15358.652554  0.432843 -3.631369 32.639334
     spin moment: S , {S} =    0.00000       0.0       0.0   0.00000
   scf:   86   -15282.719645   -15379.335275   -15379.355734  0.439627 -3.718113 25.863090
     spin moment: S , {S} =    0.00002       0.0       0.0   0.00002
   scf:   87   -15315.955962   -15389.222985   -15389.233224  0.359165 -3.765537 21.889462
     spin moment: S , {S} =    0.00003       0.0       0.0   0.00003
   scf:   88   -15259.748791   -15369.002795   -15369.005668  0.322005 -3.508993 28.154064
     spin moment: S , {S} =    0.00000       0.0       0.0   0.00000
   scf:   89   -15212.203098   -15358.639525   -15358.639584  0.432867 -3.631458 32.642591
     spin moment: S , {S} =    0.00000       0.0       0.0   0.00000
   scf:   90   -15282.667264   -15379.319229   -15379.339705  0.439647 -3.718233 25.867243
     spin moment: S , {S} =    0.00001       0.0       0.0   0.00001
   scf:   91   -15315.941021   -15389.219314   -15389.229554  0.359184 -3.765588 21.891076
     spin moment: S , {S} =    0.00002       0.0       0.0   0.00002
   scf:   92   -15259.736643   -15368.998937   -15369.001810  0.321999 -3.508995 28.155689
     spin moment: S , {S} =    0.00000       0.0       0.0   0.00000
   scf:   93   -15212.173633   -15358.630686   -15358.630746  0.432883 -3.631518 32.644821
     spin moment: S , {S} =    0.00000       0.0       0.0   0.00000
   scf:   94   -15282.629804   -15379.307822   -15379.328309  0.439660 -3.718317 25.870199
     spin moment: S , {S} =    0.00001       0.0       0.0   0.00001
   scf:   95   -15315.931301   -15389.216930   -15389.227169  0.359198 -3.765622 21.892129
     spin moment: S , {S} =    0.00002       0.0       0.0   0.00002
   scf:   96   -15259.728078   -15368.996221   -15368.999093  0.321995 -3.508997 28.156829
     spin moment: S , {S} =    0.00000       0.0       0.0   0.00000
   scf:   97   -15212.152470   -15358.624356   -15358.624416  0.432895 -3.631560 32.646420
     spin moment: S , {S} =    0.00000       0.0       0.0   0.00000
   scf:   98   -15282.604896   -15379.300196   -15379.320691  0.439670 -3.718374 25.872176
     spin moment: S , {S} =    0.00001       0.0       0.0   0.00001
   scf:   99   -15315.924459   -15389.215256   -15389.225496  0.359207 -3.765646 21.892870
     spin moment: S , {S} =    0.00002       0.0       0.0   0.00002
   scf:  100   -15259.722028   -15368.994318   -15368.997190  0.321992 -3.508998 28.157621
     spin moment: S , {S} =    0.00000       0.0       0.0   0.00000
SCF_NOT_CONV: SCF did not converge in maximum number of steps (required).
Geom step, scf iteration, dmax:    3   100     2.069531

timer: Elapsed wall time (sec) =    5176.996
timer: CPU execution times (sec):

Routine            Calls   Time/call    Tot.time        %
siesta                 1    5173.034    5173.034   100.00
Setup                  1       0.384       0.384     0.01
bands                  2       0.000       0.000     0.00
KSV_init               1       0.000       0.000     0.00
IterGeom               3    1724.216    5172.649    99.99
state_init             3       1.808       5.423     0.10
hsparse                3       0.047       0.142     0.00
overlap                3       1.672       5.015     0.10
Setup_H0               3      18.649      55.946     1.08
naefs                  5       0.002       0.011     0.00
MolMec                 5       0.000       0.000     0.00
kinefsm                5       1.000       5.002     0.10
nlefsm                 5       7.000      35.002     0.68
DHSCF_Init             3       5.999      17.998     0.35
DHSCF1                 3       0.034       0.103     0.00
INITMESH               3       0.000       0.000     0.00
DHSCF2                 3       5.965      17.895     0.35
REMESH                 3       0.707       2.122     0.04
REORD                799       0.018      14.350     0.28
PHION                  3       3.919      11.758     0.23
COMM_BSC            1529       0.014      22.068     0.43
POISON               193       0.782     150.843     2.92
fft                  386       0.298     115.193     2.23
IterSCF              185      27.469    5081.719    98.23
setup_H              188       5.120     962.645    18.61
DHSCF                190       5.191     986.214    19.06
DHSCF3               190       5.096     968.306    18.72
rhoofd               190       1.613     306.391     5.92
XC                   190       0.818     155.477     3.01
GXC-CellXC           190       0.655     124.379     2.40
cellXC               190       0.655     124.374     2.40
vmat                 190       1.332     253.025     4.89
compute_dm           185      22.228    4112.127    79.49
diagon               185      22.222    4111.024    79.47
r-eigvec             370      10.459    3869.755    74.81
r-buildHS            370       0.007       2.532     0.05
rdiag                370      10.452    3867.219    74.76
rdiag1               370       0.419     154.861     2.99
rdiag2               370       0.537     198.850     3.84
rdiag3               370       6.283    2324.768    44.94
rdiag4               370       3.194    1181.921    22.85
r-buildD             185       1.265     234.110     4.53
MIXER                183       0.019       3.407     0.07
PostSCF                2      14.755      29.511     0.57
DHSCF4                 2       8.953      17.906     0.35
dfscf                  2       8.185      16.369     0.32
overfsm                2       0.134       0.268     0.01
state_analysis         2       0.009       0.018     0.00
siesta_move            2       0.004       0.008     0.00
  
ABNORMAL_TERMINATION
Stopping Program from Node:    0
