Siesta Version  : master-post-4.1-266
Architecture    : unknown
Compiler version: GNU Fortran (Ubuntu 9.3.0-17ubuntu1~20.04) 9.3.0
Compiler flags  : gfortran -O2 -fPIC -ftree-vectorize
PP flags        : -DFC_HAVE_ABORT -DSIESTA__DIAG_2STAGE -DSIESTA__MRRR
Libraries       : libsiestaLAPACK.a libsiestaBLAS.a
Directory       : /home/colinw/siesta/mixture_simulations/asphaltene1PAH2laPAH3
SERIAL version

* Running in serial mode
>> Start of run:  15-DEC-2020  15:39:24

                           ***********************       
                           *  WELCOME TO SIESTA  *       
                           ***********************       

reinit: Reading from standard input
reinit: Dumped input in INPUT_TMP.32575
************************** Dump of input data file ****************************
NumberOfAtoms 204
SpinPolarized yes
#FixSpin .true.
#TotalSpin
NumberOfSpecies 4
MD.TypeOfRun  nose
MD.FinalTimeStep 10
MD.LengthTimeStep 1.0  fs
MD.InitialTemperature 300 K
MD.TargetTemperature  300  K
%block ChemicalSpeciesLabel
1  6  C
2  7  N
3  1  H
4  8  O
%endblock ChemicalSpeciesLabel
PAO.BasisSize szp
 PAO.EnergyShift 0.02 Ry
MeshCutoff          100 Ry
MaxSCFIterations    100
DM.NumberPulay       3
DM.Tolerance         1e-3
WriteDenchar	.true.
%block ProjectedDensityOfStates
-10.0 10.0 0.200 500 eV
%endblock ProjectedDensityOfStates
NetCharge 0.00
%block BandLines
1  1.000  1.000 1.000  L
20 0.00   0.00   0.00  \Gamma
25 2.00   0.000  0.00  X
30 2.00   2.00   2.00  \Gamma
%endblock BandLines
LongOutput .true.
WriteCoorXmol .true.
LatticeConstant 1 Ang
%block LatticeVectors
  36.83438 0.0 0.0
  0.0 29.191918 0.0
  0.0 0.0 31.963342
%endblock LatticeVectors
#UseSaveData .true.
%block kgrid_Monkhorst_Pack
1 0 0 0.0
 0 1 0 0.0
 0 0 1 0.0
%endblock kgrid_Monkhorst_Pack
WriteMDXmol .true.
AtomicCoordinatesFormat Ang
%block AtomicCoordinatesAndAtomicSpecies
4.167466  23.122821 19.530473  1
3.819641  24.205520 20.530186  1
4.013076  25.592839 19.882664  1
2.946127  25.608456 18.743341  1
3.362996  24.648088 17.605199  1
4.034928  23.365187 18.102700  1
4.655180  22.526003 17.130143  1
5.446304  21.492513 17.625279  1
5.410960  21.279376 19.027531  1
4.782310  21.974944 20.038957  1
6.135648  20.177491 19.408467  1
6.162259  19.670187 20.670904  1
5.593946  20.399552 21.727524  1
4.906607  21.558039 21.348494  2
6.229196  20.642787 16.700848  1
6.977938  19.517430 17.206014  1
6.866026  19.371845 18.537427  1
4.583627  22.691779 15.799699  2
5.274793  21.834263 14.964812  1
6.134932  20.758442 15.336794  1
6.773477  19.707758 14.472251  1
7.260399  18.490215 15.086583  1
7.379618  18.393444 16.458456  1
7.497894  17.152537 17.181088  1
7.604093  17.063341 18.575690  1
7.183012  18.212861 19.213250  1
6.861210  19.693360 13.075421  1
7.232187  18.608795 12.321344  2
7.494799  17.437340 12.955411  1
7.468582  17.319134 14.330540  1
7.619498  15.968309 15.010278  1
7.034827  15.915552 16.422689  1
5.506067  25.824030 19.452681  1
6.518648  25.751376 20.619081  1
7.988727  25.893781 20.194520  1
8.441746  24.803987 19.231968  1
2.509298  26.991008 18.224600  1
1.861183  27.867214 19.296945  1
5.604679  20.049762 23.202560  1
6.893310  19.407921 23.784919  1
6.794194  19.160057 25.278281  1
7.270751  18.066931 23.193726  1
5.464304  15.708177 16.488781  1
4.479468  16.687608 15.806413  1
4.355242  18.048259 16.434743  1
7.929446  16.301947 12.060439  1
6.769444  15.431725 11.553415  1
7.242878  14.269768 10.647048  1
8.182401  13.323483 11.402322  1
6.072837  13.469844 10.018624  1
5.203744  12.705640 11.024395  1
4.089232  11.912453 10.357435  1
6.759800  18.439315 20.486516  2
6.633916  20.922054 12.240673  1
4.452437  24.135242 21.419631  3
2.789182  24.067740 20.877254  3
3.766892  26.349218 20.633894  3
2.022285  25.182961 19.166174  3
4.060452  25.169182 16.936620  3
2.478139  24.380095 17.014008  3
5.037036  22.031816 13.927822  3
7.702910  16.125385 19.109414  3
7.136373  15.174636 14.430805  3
8.690654  15.733738 15.058753  3
7.461375  15.024936 16.917764  3
5.609368  26.789656 18.946603  3
5.806693  25.074767 18.716717  3
6.433293  24.795596 21.147463  3
6.286143  26.537898 21.345673  3
8.620094  25.843580 21.092202  3
8.159845  26.878142 19.745959  3
8.254337  23.809210 19.649503  3
9.513639  24.890869 19.027531  3
7.921101  24.880931 18.273760  3
1.755901  26.844147 17.437496  3
3.346923  27.523799 17.765859  3
0.934217  27.415232 19.668852  3
1.604436  28.847656 18.881924  3
2.522960  28.037165 20.149391  3
4.724935  19.431236 23.415756  3
5.449364  20.993389 23.749246  3
7.726757  20.093720 23.589043  3
5.949456  18.500896 25.504580  3
6.691708  20.095814 25.825822  3
7.707507  18.658926 25.624327  3
6.379274  17.461209 22.973638  3
7.959947  17.447525 23.768995  3
7.893671  18.311728 22.339703  3
5.161976  15.612180 17.541247  3
5.254402  14.730712 16.032734  3
3.469340  16.275094 15.833876  3
4.754045  16.802057 14.752257  3
4.393988  18.073289 17.525676  3
3.580763  18.703225 16.033259  3
5.199711  18.550795 16.064520  3
8.672518  15.700993 12.597790  3
8.466837  16.742438 11.214355  3
6.063281  16.065382 11.002772  3
6.214391  15.025480 12.406141  3
7.808788  14.706854 9.812446  3
7.757096  13.037148 12.370105  3
9.152625  13.793007 11.587871  3
8.370030  12.411140 10.827104  3
6.497766  12.745229 9.309636  3
5.447313  14.145564 9.422499  3
4.761909  13.398474 11.746951  3
5.818830  11.993439 11.584013  3
3.390962  12.563756 9.823043  3
3.524817  11.361727 11.117926  3
4.496867  11.182507 9.651052  3
6.783936  17.667713 21.122787  3
7.153688  20.829410 11.286765  3
7.046443  21.805223 12.740665  3
5.567742  21.057566 12.039977  3
5.427800  9.417777 18.427412  1
6.731651  10.093905 18.838958  1
7.368553  10.887147 17.684673  1
8.686562  11.614213 17.985049  1
9.839121  11.265426 17.253661  1
9.747374  10.214139 16.373777  4
11.069086  11.959783 17.388843  1
12.224726  11.635747 16.643509  1
13.412337  12.341077 16.835415  1
13.444741  13.393085 17.746182  1
12.329906  13.770116 18.478061  1
12.423871  14.800039 19.324182  2
11.345690  15.161246 20.068378  1
11.585179  16.321009 21.015447  1
11.352818  17.735845 20.430550  1
9.919975  17.969867 19.946583  1
11.702498  18.799041 21.481188  1
10.098326  14.489000 19.984024  1
8.957459  14.842941 20.743949  1
7.720382  14.219236 20.556874  1
6.476374  14.667175 21.302513  1
5.277368  15.005771 20.375943  1
4.012225  15.502367 21.122279  1
2.866003  15.870446 20.164560  1
3.486136  14.446088 22.094041  1
7.673219  13.141270 19.677255  1
8.768704  12.699459 18.909706  1
10.001074  13.410012 19.070482  1
11.128308  13.033007 18.303782  1
4.889066  9.079062 19.319594  3
5.618423  8.543857 17.798221  3
4.767711  10.102523 17.883842  3
7.430440  9.343376 19.222253  3
6.489846  10.732963 19.687737  3
6.663722  11.637499 17.303511  3
7.500677  10.187059 16.850895  3
10.525396  9.649521 16.517887  3
12.216441  10.844025 15.903307  3
14.304771  12.073542 16.273612  3
14.376438  13.941238 17.890746  3
12.640687  16.260159 21.329217  3
11.023208  16.189692 21.941707  3
12.025143  17.882797 19.575653  3
9.184411  17.601729 20.665146  3
9.749801  17.474582 18.985531  3
9.711618  19.036320 19.809415  3
10.998308  18.778678 22.320619  3
11.666656  19.801986 21.040398  3
12.711558  18.649779 21.878524  3
9.011103  15.634454 21.479969  3
6.709736  15.544570 21.917648  3
6.206222  13.860910 21.994602  3
5.006597  14.116339 19.793537  3
5.592867  15.764390 19.647690  3
4.268990  16.404202 21.691982  3
2.701575  15.095185 19.408698  3
3.056704  16.818818 19.652700  3
1.923416  15.990834 20.715340  3
3.257629  13.513989 21.566117  3
2.567595  14.790026 22.582118  3
4.209417  14.233347 22.884192  3
6.710245  12.645992 19.588141  3
29.060832  27.671202 2.586542  1
27.638954  27.206094 2.496725  1
27.337380  25.859564 2.366587  1
26.002543  25.447209 2.430430  1
25.687483  24.078691 2.365288  1
24.366969  23.632188 2.532436  1
24.018765  22.278569 2.547828  1
22.764251  21.811270 2.751168  2
21.802278  22.735165 2.935894  1
22.028818  24.101324 2.912483  1
23.336050  24.566233 2.713691  1
23.647372  25.939433 2.721812  1
24.982030  26.406780 2.599849  1
25.382010  27.762100 2.660122  1
24.424986  28.900183 2.862587  1
26.684678  28.150321 2.624270  2
29.768597  26.859433 2.391982  3
29.252279  28.054464 3.594528  3
29.245679  28.469758 1.862480  3
28.137578  25.133258 2.261404  3
26.480250  23.349167 2.224718  3
24.767985  21.503610 2.410992  3
20.806604  22.338549 3.115506  3
21.202049  24.787036 3.068518  3
22.834309  26.645010 2.857367  3
23.388772  28.652213 2.626352  3
24.703648  29.735775 2.210612  3
24.476071  29.241008 3.901927  3
 %endblock AtomicCoordinatesAndAtomicSpecies
************************** End of input data file *****************************

reinit: -----------------------------------------------------------------------
reinit: System Name: 
reinit: -----------------------------------------------------------------------
reinit: System Label: siesta
reinit: -----------------------------------------------------------------------

initatom: Reading input for the pseudopotentials and atomic orbitals ----------
Species number:   1 Atomic number:    6 Label: C
Species number:   2 Atomic number:    7 Label: N
Species number:   3 Atomic number:    1 Label: H
Species number:   4 Atomic number:    8 Label: O

Ground state valence configuration:   2s02  2p02
Reading pseudopotential information in formatted form from C.psf

Valence configuration for pseudopotential generation:
2s( 2.00) rc: 1.54
2p( 2.00) rc: 1.54
3d( 0.00) rc: 1.54
4f( 0.00) rc: 1.54
Ground state valence configuration:   2s02  2p03
Reading pseudopotential information in formatted form from N.psf

Valence configuration for pseudopotential generation:
2s( 2.00) rc: 1.48
2p( 3.00) rc: 1.48
3d( 0.00) rc: 1.48
4f( 0.00) rc: 1.48
Ground state valence configuration:   1s01
Reading pseudopotential information in formatted form from H.psf

Valence configuration for pseudopotential generation:
1s( 1.00) rc: 1.31
2p( 0.00) rc: 1.31
3d( 0.00) rc: 0.37
4f( 0.00) rc: 1.31
Ground state valence configuration:   2s02  2p04
Reading pseudopotential information in formatted form from O.psf

Valence configuration for pseudopotential generation:
2s( 2.00) rc: 1.47
2p( 4.00) rc: 1.47
3d( 0.00) rc: 1.47
4f( 0.00) rc: 1.47
For C, standard SIESTA heuristics set lmxkb to 3
 (one more than the basis l, including polarization orbitals).
Use PS.lmax or PS.KBprojectors blocks to override.
For N, standard SIESTA heuristics set lmxkb to 3
 (one more than the basis l, including polarization orbitals).
Use PS.lmax or PS.KBprojectors blocks to override.
For H, standard SIESTA heuristics set lmxkb to 2
 (one more than the basis l, including polarization orbitals).
Use PS.lmax or PS.KBprojectors blocks to override.
For O, standard SIESTA heuristics set lmxkb to 3
 (one more than the basis l, including polarization orbitals).
Use PS.lmax or PS.KBprojectors blocks to override.

<basis_specs>
===============================================================================
C                    Z=   6    Mass=  12.010        Charge= 0.17977+309
Lmxo=1 Lmxkb= 3    BasisType=split      Semic=F
L=0  Nsemic=0  Cnfigmx=2
          i=1  nzeta=1  polorb=0  (2s)
            splnorm:   0.15000    
               vcte:    0.0000    
               rinn:    0.0000    
               qcoe:    0.0000    
               qyuk:    0.0000    
               qwid:   0.10000E-01
                rcs:    0.0000    
            lambdas:    1.0000    
L=1  Nsemic=0  Cnfigmx=2
          i=1  nzeta=1  polorb=1  (2p)
            splnorm:   0.15000    
               vcte:    0.0000    
               rinn:    0.0000    
               qcoe:    0.0000    
               qyuk:    0.0000    
               qwid:   0.10000E-01
                rcs:    0.0000    
            lambdas:    1.0000    
-------------------------------------------------------------------------------
L=0  Nkbl=1  erefs: 0.17977+309
L=1  Nkbl=1  erefs: 0.17977+309
L=2  Nkbl=1  erefs: 0.17977+309
L=3  Nkbl=1  erefs: 0.17977+309
===============================================================================
</basis_specs>

atom: Called for C                     (Z =   6)

read_vps: Pseudopotential generation method:
read_vps: ATM3      Troullier-Martins                       
Valence charge for ps generation:    4.00000

read_vps: Pseudopotential includes a core correction:
read_vps: Pseudo-core for xc-correction

xc_check: Exchange-correlation functional:
xc_check: Ceperley-Alder
xc_check: WARNING: Pseudopotential generated with GGA PBE functional
V l=0 = -2*Zval/r beyond r=  1.5227
V l=1 = -2*Zval/r beyond r=  1.5227
V l=2 = -2*Zval/r beyond r=  1.5227
V l=3 = -2*Zval/r beyond r=  1.5038
All V_l potentials equal beyond r=  1.5227
This should be close to max(r_c) in ps generation
All pots = -2*Zval/r beyond r=  1.5227

VLOCAL1: 99.0% of the norm of Vloc inside     18.722 Ry
VLOCAL1: 99.9% of the norm of Vloc inside     42.668 Ry
atom: Maximum radius for 4*pi*r*r*local-pseudopot. charge    1.83678
atom: Maximum radius for r*vlocal+2*Zval:    1.58088

KBgen: Kleinman-Bylander projectors: 
GHOST: No ghost state for L =  0
   l= 0   rc=  1.704034   el= -0.998584   Ekb=  5.327875   kbcos=  0.314897
GHOST: No ghost state for L =  1
   l= 1   rc=  1.704034   el= -0.383998   Ekb= -3.785479   kbcos= -0.363289
GHOST: No ghost state for L =  2
   l= 2   rc=  1.791422   el=  0.002326   Ekb= -0.971263   kbcos= -0.009325
GHOST: No ghost state for L =  3
   l= 3   rc=  1.859892   el=  0.003420   Ekb= -0.399672   kbcos= -0.001232

KBgen: Total number of  Kleinman-Bylander projectors:   16
atom: -------------------------------------------------------------------------

atom: SANKEY-TYPE ORBITALS:

SPLIT: Orbitals with angular momentum L= 0

SPLIT: Basis orbitals for state 2s

SPLIT: PAO cut-off radius determined from an
SPLIT: energy shift=  0.020000 Ry

   izeta = 1
                 lambda =    1.000000
                     rc =    4.191849
                 energy =   -0.980459
                kinetic =    0.881507
    potential(screened) =   -1.861966
       potential(ionic) =   -5.449625

SPLIT: Orbitals with angular momentum L= 1

SPLIT: Basis orbitals for state 2p

SPLIT: PAO cut-off radius determined from an
SPLIT: energy shift=  0.020000 Ry

   izeta = 1
                 lambda =    1.000000
                     rc =    4.993604
                 energy =   -0.366127
                kinetic =    2.463190
    potential(screened) =   -2.829316
       potential(ionic) =   -6.291180

POLgen: Perturbative polarization orbital with L=  2

POLgen: Polarization orbital for state 2p

   izeta = 1
                     rc =    4.993604
                 energy =    1.232619
                kinetic =    2.527283
    potential(screened) =   -1.294664
       potential(ionic) =   -4.203101
atom: Total number of Sankey-type orbitals:  9

atm_pop: Valence configuration (for local Pseudopot. screening):
 2s( 2.00)                                                            
 2p( 2.00)                                                            
Vna: chval, zval:    4.00000   4.00000

Vna:  Cut-off radius for the neutral-atom potential:   4.993604
comcore: Pseudo-core radius Rcore=  1.791422

atom: _________________________________________________________________________

<basis_specs>
===============================================================================
N                    Z=   7    Mass=  14.010        Charge= 0.17977+309
Lmxo=1 Lmxkb= 3    BasisType=split      Semic=F
L=0  Nsemic=0  Cnfigmx=2
          i=1  nzeta=1  polorb=0  (2s)
            splnorm:   0.15000    
               vcte:    0.0000    
               rinn:    0.0000    
               qcoe:    0.0000    
               qyuk:    0.0000    
               qwid:   0.10000E-01
                rcs:    0.0000    
            lambdas:    1.0000    
L=1  Nsemic=0  Cnfigmx=2
          i=1  nzeta=1  polorb=1  (2p)
            splnorm:   0.15000    
               vcte:    0.0000    
               rinn:    0.0000    
               qcoe:    0.0000    
               qyuk:    0.0000    
               qwid:   0.10000E-01
                rcs:    0.0000    
            lambdas:    1.0000    
-------------------------------------------------------------------------------
L=0  Nkbl=1  erefs: 0.17977+309
L=1  Nkbl=1  erefs: 0.17977+309
L=2  Nkbl=1  erefs: 0.17977+309
L=3  Nkbl=1  erefs: 0.17977+309
===============================================================================
</basis_specs>

atom: Called for N                     (Z =   7)

read_vps: Pseudopotential generation method:
read_vps: ATM3      Troullier-Martins                       
Valence charge for ps generation:    5.00000

read_vps: Pseudopotential includes a core correction:
read_vps: Pseudo-core for xc-correction

xc_check: Exchange-correlation functional:
xc_check: Ceperley-Alder
xc_check: WARNING: Pseudopotential generated with GGA PBE functional
V l=0 = -2*Zval/r beyond r=  1.4606
V l=1 = -2*Zval/r beyond r=  1.4606
V l=2 = -2*Zval/r beyond r=  1.4606
V l=3 = -2*Zval/r beyond r=  1.4606
All V_l potentials equal beyond r=  1.4606
This should be close to max(r_c) in ps generation
All pots = -2*Zval/r beyond r=  1.4606

VLOCAL1: 99.0% of the norm of Vloc inside     20.347 Ry
VLOCAL1: 99.9% of the norm of Vloc inside     46.372 Ry
atom: Maximum radius for 4*pi*r*r*local-pseudopot. charge    1.76189
atom: Maximum radius for r*vlocal+2*Zval:    1.53550

KBgen: Kleinman-Bylander projectors: 
GHOST: No ghost state for L =  0
   l= 0   rc=  1.634559   el= -1.348537   Ekb=  5.297520   kbcos=  0.333054
GHOST: No ghost state for L =  1
   l= 1   rc=  1.614250   el= -0.512415   Ekb= -5.262296   kbcos= -0.428933
GHOST: No ghost state for L =  2
   l= 2   rc=  1.718383   el=  0.002346   Ekb= -1.271998   kbcos= -0.007619
GHOST: No ghost state for L =  3
   l= 3   rc=  1.761893   el=  0.003449   Ekb= -0.494630   kbcos= -0.001017

KBgen: Total number of  Kleinman-Bylander projectors:   16
atom: -------------------------------------------------------------------------

atom: SANKEY-TYPE ORBITALS:

SPLIT: Orbitals with angular momentum L= 0

SPLIT: Basis orbitals for state 2s

SPLIT: PAO cut-off radius determined from an
SPLIT: energy shift=  0.020000 Ry

   izeta = 1
                 lambda =    1.000000
                     rc =    3.683980
                 energy =   -1.330014
                kinetic =    1.203086
    potential(screened) =   -2.533100
       potential(ionic) =   -8.093205

SPLIT: Orbitals with angular momentum L= 1

SPLIT: Basis orbitals for state 2p

SPLIT: PAO cut-off radius determined from an
SPLIT: energy shift=  0.020000 Ry

   izeta = 1
                 lambda =    1.000000
                     rc =    4.388595
                 energy =   -0.493943
                kinetic =    3.501321
    potential(screened) =   -3.995264
       potential(ionic) =   -9.374806

POLgen: Perturbative polarization orbital with L=  2

POLgen: Polarization orbital for state 2p

   izeta = 1
                     rc =    4.388595
                 energy =    1.759924
                kinetic =    3.542120
    potential(screened) =   -1.782196
       potential(ionic) =   -6.226799
atom: Total number of Sankey-type orbitals:  9

atm_pop: Valence configuration (for local Pseudopot. screening):
 2s( 2.00)                                                            
 2p( 3.00)                                                            
Vna: chval, zval:    5.00000   5.00000

Vna:  Cut-off radius for the neutral-atom potential:   4.388595
comcore: Pseudo-core radius Rcore=  1.554824

atom: _________________________________________________________________________

<basis_specs>
===============================================================================
H                    Z=   1    Mass=  1.0100        Charge= 0.17977+309
Lmxo=0 Lmxkb= 2    BasisType=split      Semic=F
L=0  Nsemic=0  Cnfigmx=1
          i=1  nzeta=1  polorb=1  (1s)
            splnorm:   0.15000    
               vcte:    0.0000    
               rinn:    0.0000    
               qcoe:    0.0000    
               qyuk:    0.0000    
               qwid:   0.10000E-01
                rcs:    0.0000    
            lambdas:    1.0000    
-------------------------------------------------------------------------------
L=0  Nkbl=1  erefs: 0.17977+309
L=1  Nkbl=1  erefs: 0.17977+309
L=2  Nkbl=1  erefs: 0.17977+309
===============================================================================
</basis_specs>

atom: Called for H                     (Z =   1)

read_vps: Pseudopotential generation method:
read_vps: ATM3      Troullier-Martins                       
Valence charge for ps generation:    1.00000

xc_check: Exchange-correlation functional:
xc_check: Ceperley-Alder
xc_check: WARNING: Pseudopotential generated with GGA PBE functional
V l=0 = -2*Zval/r beyond r=  1.2977
V l=1 = -2*Zval/r beyond r=  1.2815
V l=2 = -2*Zval/r beyond r=  1.2656
All V_l potentials equal beyond r=  1.2977
This should be close to max(r_c) in ps generation
All pots = -2*Zval/r beyond r=  1.2977

VLOCAL1: 99.0% of the norm of Vloc inside     25.776 Ry
VLOCAL1: 99.9% of the norm of Vloc inside     58.745 Ry
atom: Maximum radius for 4*pi*r*r*local-pseudopot. charge    1.52711
atom: Maximum radius for r*vlocal+2*Zval:    1.28155

KBgen: Kleinman-Bylander projectors: 
GHOST: No ghost state for L =  0
   l= 0   rc=  1.434438   el= -0.456815   Ekb= -1.960338   kbcos= -0.349997
GHOST: No ghost state for L =  1
   l= 1   rc=  1.508111   el=  0.001431   Ekb= -0.423993   kbcos= -0.025386
GHOST: No ghost state for L =  2
   l= 2   rc=  1.546352   el=  0.002365   Ekb= -0.376562   kbcos= -0.002012

KBgen: Total number of  Kleinman-Bylander projectors:    9
atom: -------------------------------------------------------------------------

atom: SANKEY-TYPE ORBITALS:

SPLIT: Orbitals with angular momentum L= 0

SPLIT: Basis orbitals for state 1s

SPLIT: PAO cut-off radius determined from an
SPLIT: energy shift=  0.020000 Ry

   izeta = 1
                 lambda =    1.000000
                     rc =    4.828263
                 energy =   -0.438372
                kinetic =    0.921576
    potential(screened) =   -1.359947
       potential(ionic) =   -1.906664

POLgen: Perturbative polarization orbital with L=  1

POLgen: Polarization orbital for state 1s

   izeta = 1
                     rc =    4.828263
                 energy =    0.711580
                kinetic =    1.391494
    potential(screened) =   -0.679914
       potential(ionic) =   -1.168115
atom: Total number of Sankey-type orbitals:  4

atm_pop: Valence configuration (for local Pseudopot. screening):
 1s( 1.00)                                                            
Vna: chval, zval:    1.00000   1.00000

Vna:  Cut-off radius for the neutral-atom potential:   4.828263

atom: _________________________________________________________________________

<basis_specs>
===============================================================================
O                    Z=   8    Mass=  16.000        Charge= 0.17977+309
Lmxo=1 Lmxkb= 3    BasisType=split      Semic=F
L=0  Nsemic=0  Cnfigmx=2
          i=1  nzeta=1  polorb=0  (2s)
            splnorm:   0.15000    
               vcte:    0.0000    
               rinn:    0.0000    
               qcoe:    0.0000    
               qyuk:    0.0000    
               qwid:   0.10000E-01
                rcs:    0.0000    
            lambdas:    1.0000    
L=1  Nsemic=0  Cnfigmx=2
          i=1  nzeta=1  polorb=1  (2p)
            splnorm:   0.15000    
               vcte:    0.0000    
               rinn:    0.0000    
               qcoe:    0.0000    
               qyuk:    0.0000    
               qwid:   0.10000E-01
                rcs:    0.0000    
            lambdas:    1.0000    
-------------------------------------------------------------------------------
L=0  Nkbl=1  erefs: 0.17977+309
L=1  Nkbl=1  erefs: 0.17977+309
L=2  Nkbl=1  erefs: 0.17977+309
L=3  Nkbl=1  erefs: 0.17977+309
===============================================================================
</basis_specs>

atom: Called for O                     (Z =   8)

read_vps: Pseudopotential generation method:
read_vps: ATM3      Troullier-Martins                       
Valence charge for ps generation:    6.00000

read_vps: Pseudopotential includes a core correction:
read_vps: Pseudo-core for xc-correction

xc_check: Exchange-correlation functional:
xc_check: Ceperley-Alder
xc_check: WARNING: Pseudopotential generated with GGA PBE functional
V l=0 = -2*Zval/r beyond r=  1.4482
V l=1 = -2*Zval/r beyond r=  1.4482
V l=2 = -2*Zval/r beyond r=  1.4482
V l=3 = -2*Zval/r beyond r=  1.4482
All V_l potentials equal beyond r=  1.4482
This should be close to max(r_c) in ps generation
All pots = -2*Zval/r beyond r=  1.4482

VLOCAL1: 99.0% of the norm of Vloc inside     20.696 Ry
VLOCAL1: 99.9% of the norm of Vloc inside     47.167 Ry
atom: Maximum radius for 4*pi*r*r*local-pseudopot. charge    1.74697
atom: Maximum radius for r*vlocal+2*Zval:    1.52250

KBgen: Kleinman-Bylander projectors: 
GHOST: No ghost state for L =  0
   l= 0   rc=  1.620715   el= -1.738829   Ekb=  4.895054   kbcos=  0.290645
GHOST: No ghost state for L =  1
   l= 1   rc=  1.600578   el= -0.650915   Ekb= -6.916539   kbcos= -0.494696
GHOST: No ghost state for L =  2
   l= 2   rc=  1.703827   el=  0.002386   Ekb= -1.538961   kbcos= -0.006789
GHOST: No ghost state for L =  3
   l= 3   rc=  1.746967   el=  0.003508   Ekb= -0.568530   kbcos= -0.000966

KBgen: Total number of  Kleinman-Bylander projectors:   16
atom: -------------------------------------------------------------------------

atom: SANKEY-TYPE ORBITALS:

SPLIT: Orbitals with angular momentum L= 0

SPLIT: Basis orbitals for state 2s

SPLIT: PAO cut-off radius determined from an
SPLIT: energy shift=  0.020000 Ry

   izeta = 1
                 lambda =    1.000000
                     rc =    3.305093
                 energy =   -1.720120
                kinetic =    1.583509
    potential(screened) =   -3.303629
       potential(ionic) =  -11.248859

SPLIT: Orbitals with angular momentum L= 1

SPLIT: Basis orbitals for state 2p

SPLIT: PAO cut-off radius determined from an
SPLIT: energy shift=  0.020000 Ry

   izeta = 1
                 lambda =    1.000000
                     rc =    3.937239
                 energy =   -0.631844
                kinetic =    4.616405
    potential(screened) =   -5.248250
       potential(ionic) =  -12.927368

POLgen: Perturbative polarization orbital with L=  2

POLgen: Polarization orbital for state 2p

   izeta = 1
                     rc =    3.937239
                 energy =    2.368129
                kinetic =    4.725445
    potential(screened) =   -2.357315
       potential(ionic) =   -8.649185
atom: Total number of Sankey-type orbitals:  9

atm_pop: Valence configuration (for local Pseudopot. screening):
 2s( 2.00)                                                            
 2p( 4.00)                                                            
Vna: chval, zval:    6.00000   6.00000

Vna:  Cut-off radius for the neutral-atom potential:   3.937239
comcore: Pseudo-core radius Rcore=  1.377587

atom: _________________________________________________________________________

prinput: Basis input ----------------------------------------------------------

PAO.BasisType split     

%block ChemicalSpeciesLabel
    1    6 C                       # Species index, atomic number, species label
    2    7 N                       # Species index, atomic number, species label
    3    1 H                       # Species index, atomic number, species label
    4    8 O                       # Species index, atomic number, species label
%endblock ChemicalSpeciesLabel

%block PAO.Basis                 # Define Basis set
C                     2                    # Species label, number of l-shells
 n=2   0   1                         # n, l, Nzeta 
   4.192   
   1.000   
 n=2   1   1 P   1                   # n, l, Nzeta, Polarization, NzetaPol
   4.994   
   1.000   
N                     2                    # Species label, number of l-shells
 n=2   0   1                         # n, l, Nzeta 
   3.684   
   1.000   
 n=2   1   1 P   1                   # n, l, Nzeta, Polarization, NzetaPol
   4.389   
   1.000   
H                     1                    # Species label, number of l-shells
 n=1   0   1 P   1                   # n, l, Nzeta, Polarization, NzetaPol
   4.828   
   1.000   
O                     2                    # Species label, number of l-shells
 n=2   0   1                         # n, l, Nzeta 
   3.305   
   1.000   
 n=2   1   1 P   1                   # n, l, Nzeta, Polarization, NzetaPol
   3.937   
   1.000   
%endblock PAO.Basis

prinput: ----------------------------------------------------------------------

coor:   Atomic-coordinates input format  =     Cartesian coordinates
coor:                                          (in Angstroms)

siesta: Atomic coordinates (Bohr) and species
siesta:      7.87537  43.69582  36.90726  1        1
siesta:      7.21808  45.74182  38.79644  1        2
siesta:      7.58362  48.36348  37.57280  1        3
siesta:      5.56738  48.39299  35.41980  1        4
siesta:      6.35514  46.57815  33.26902  1        5
siesta:      7.62491  44.15382  34.20916  1        6
siesta:      8.79702  42.56799  32.37129  1        7
siesta:     10.29203  40.61498  33.30696  1        8
siesta:     10.22524  40.21221  35.95684  1        9
siesta:      9.03726  41.52664  37.86816  1       10
siesta:     11.59470  38.12995  36.67670  1       11
siesta:     11.64499  37.17128  39.06236  1       12
siesta:     10.57103  38.54958  41.05909  1       13
siesta:      9.27215  40.73881  40.34282  2       14
siesta:     11.77148  39.00923  31.56004  1       15
siesta:     13.18640  36.88261  32.51467  1       16
siesta:     12.97491  36.60750  35.03067  1       17
siesta:      8.66180  42.88126  29.85712  2       18
siesta:      9.96792  41.26079  28.27941  1       19
siesta:     11.59335  39.22779  28.98235  1       20
siesta:     12.80002  37.24228  27.34860  1       21
siesta:     13.72017  34.94146  28.50952  1       22
siesta:     13.94546  34.75859  31.10199  1       23
siesta:     14.16897  32.41361  32.46756  1       24
siesta:     14.36966  32.24505  35.10298  1       25
siesta:     13.57393  34.41733  36.30779  1       26
siesta:     12.96581  37.21507  24.70897  1       27
siesta:     13.66686  35.16554  23.28397  2       28
siesta:     14.16312  32.95181  24.48219  1       29
siesta:     14.11358  32.72843  27.08081  1       30
siesta:     14.39877  30.17574  28.36533  1       31
siesta:     13.29390  30.07605  31.03440  1       32
siesta:     10.40496  48.80036  36.76025  1       33
siesta:     12.31846  48.66307  38.96443  1       34
siesta:     15.09651  48.93217  38.16213  1       35
siesta:     15.95259  46.87276  36.34317  1       36
siesta:      4.74189  51.00563  34.43952  1       37
siesta:      3.51713  52.66142  36.46596  1       38
siesta:     10.59131  37.88857  43.84650  1       39
siesta:     13.02647  36.67567  44.94700  1       40
siesta:     12.83917  36.20727  47.76905  1       41
siesta:     13.73973  34.14157  43.82981  1       42
siesta:     10.32604  29.68416  31.15929  1       43
siesta:      8.46497  31.53502  29.86980  1       44
siesta:      8.23022  34.10628  31.05718  1       45
siesta:     14.98449  30.80623  22.79094  1       46
siesta:     12.79240  29.16175  21.83280  1       47
siesta:     13.68706  26.96596  20.12001  1       48
siesta:     15.46250  25.17774  21.54727  1       49
siesta:     11.47600  25.45433  18.93246  1       50
siesta:      9.83365  24.01019  20.83310  1       51
siesta:      7.72753  22.51128  19.57272  1       52
siesta:     12.77418  34.84527  38.71392  2       53
siesta:     12.53629  39.53697  23.13153  1       54
siesta:      8.41389  45.60902  40.47725  3       55
siesta:      5.27079  45.48146  39.45231  3       56
siesta:      7.11840  49.79283  38.99242  3       57
siesta:      3.82157  47.58892  36.21883  3       58
siesta:      7.67315  47.56288  32.00559  3       59
siesta:      4.68301  46.07172  32.15183  3       60
siesta:      9.51862  41.63411  26.31978  3       61
siesta:     14.55640  30.47257  36.11157  3       62
siesta:     13.48580  28.67592  27.27028  3       63
siesta:     16.42296  29.73247  28.45693  3       64
siesta:     14.09996  28.39303  31.96995  3       65
siesta:     10.60017  50.62513  35.80390  3       66
siesta:     10.97306  47.38446  35.36948  3       67
siesta:     12.15717  46.85690  39.96293  3       68
siesta:     11.87909  50.14938  40.33749  3       69
siesta:     16.28962  48.83731  39.85850  3       70
siesta:     15.41988  50.79235  37.31447  3       71
siesta:     15.59844  44.99290  37.13219  3       72
siesta:     17.97818  47.03694  35.95684  3       73
siesta:     14.96872  47.01816  34.53242  3       74
siesta:      3.31817  50.72811  32.95210  3       75
siesta:      6.32477  52.01246  33.57262  3       76
siesta:      1.76541  51.80730  37.16876  3       77
siesta:      3.03195  54.51419  35.68168  3       78
siesta:      4.76771  52.98258  38.07685  3       79
siesta:      8.92884  36.71973  44.24938  3       80
siesta:     10.29781  39.67177  44.87959  3       81
siesta:     14.60146  37.97164  44.57685  3       82
siesta:     11.24285  34.96164  48.19669  3       83
siesta:     12.64550  37.97560  48.80375  3       84
siesta:     14.56508  35.26027  48.42298  3       85
siesta:     12.05509  32.99692  43.41390  3       86
siesta:     15.04213  32.97106  44.91691  3       87
siesta:     14.91688  34.60416  42.21594  3       88
siesta:      9.75472  29.50276  33.14817  3       89
siesta:      9.92938  27.83702  30.29749  3       90
siesta:      6.55611  30.75548  29.92170  3       91
siesta:      8.98385  31.75130  27.87774  3       92
siesta:      8.30344  34.15358  33.11874  3       93
siesta:      6.76666  35.34399  30.29848  3       94
siesta:      9.82603  35.05594  30.35756  3       95
siesta:     16.38869  29.67059  23.80638  3       96
siesta:     16.00001  31.63864  21.19207  3       97
siesta:     11.45795  30.35918  20.79223  3       98
siesta:     11.74350  28.39405  23.44422  3       99
siesta:     14.75648  27.79194  18.54284  3      100
siesta:     14.65879  24.63665  23.37612  3      101
siesta:     17.29596  26.06502  21.89791  3      102
siesta:     15.81707  23.45366  20.46027  3      103
siesta:     12.27900  24.08500  17.59267  3      104
siesta:     10.29393  26.73125  17.80595  3      105
siesta:      8.99871  25.31946  22.19853  3      106
siesta:     10.99600  22.66432  21.89062  3      107
siesta:      6.40799  23.74207  18.56287  3      108
siesta:      6.66094  21.47056  21.00984  3      109
siesta:      8.49785  21.13188  18.23785  3      110
siesta:     12.81979  33.38715  39.91630  3      111
siesta:     13.51852  39.36190  21.32890  3      112
siesta:     13.31585  41.20592  24.07638  3      113
siesta:     10.52151  39.79305  22.75227  3      114
siesta:     10.25706  17.79703  34.82278  1      115
siesta:     12.72098  19.07472  35.60049  1      116
siesta:     13.92455  20.57373  33.41920  1      117
siesta:     16.41523  21.94769  33.98683  1      118
siesta:     18.59325  21.28858  32.60471  1      119
siesta:     18.41987  19.30193  30.94197  4      120
siesta:     20.91755  22.60072  32.86016  1      121
siesta:     23.10139  21.98838  31.45169  1      122
siesta:     25.34565  23.32126  31.81434  1      123
siesta:     25.40689  25.30927  33.53544  1      124
siesta:     23.30015  26.02176  34.91849  1      125
siesta:     23.47772  27.96803  36.51743  2      126
siesta:     21.44026  28.65061  37.92375  1      127
siesta:     21.89282  30.84225  39.71346  1      128
siesta:     21.45373  33.51590  38.60816  1      129
siesta:     18.74604  33.95814  37.69359  1      130
siesta:     22.11453  35.52505  40.59358  1      131
siesta:     19.08308  27.38025  37.76435  1      132
siesta:     16.92715  28.04910  39.20040  1      133
siesta:     14.58941  26.87047  38.84688  1      134
siesta:     12.23858  27.71695  40.25593  1      135
siesta:      9.97278  28.35681  38.50497  1      136
siesta:      7.58201  29.29524  39.91534  1      137
siesta:      5.41596  29.99081  38.10551  1      138
siesta:      6.58784  27.29916  41.75170  1      139
siesta:     14.50029  24.83341  37.18464  1      140
siesta:     16.57046  23.99851  35.73418  1      141
siesta:     18.89930  25.34126  36.03800  1      142
siesta:     21.02946  24.62882  34.58915  1      143
siesta:      9.23900  17.15695  36.50876  3      144
siesta:     10.61728  16.14556  33.63378  3      145
siesta:      9.00967  19.09101  33.79558  3      146
siesta:     14.04150  17.65643  36.32481  3      147
siesta:     12.26404  20.28237  37.20445  3      148
siesta:     12.59261  21.99169  32.69891  3      149
siesta:     14.17423  19.25076  31.84359  3      150
siesta:     19.89012  18.23496  31.21430  3      151
siesta:     23.08574  20.49225  30.05291  3      152
siesta:     27.03211  22.81570  30.75268  3      153
siesta:     27.16754  26.34513  33.80862  3      154
siesta:     23.88745  30.72726  40.30639  3      155
siesta:     20.83085  30.59410  41.46383  3      156
siesta:     22.72424  33.79360  36.99264  3      157
siesta:     17.35603  33.26246  39.05148  3      158
siesta:     18.42446  33.02219  35.87747  3      159
siesta:     18.35231  35.97345  37.43438  3      160
siesta:     20.78380  35.48657  42.17987  3      161
siesta:     22.04679  37.42035  39.76061  3      162
siesta:     24.02137  35.24299  41.34443  3      163
siesta:     17.02852  29.54485  40.59127  3      164
siesta:     12.67957  29.37499  41.41837  3      165
siesta:     11.72806  26.19333  41.56379  3      166
siesta:      9.46110  26.67603  37.40438  3      167
siesta:     10.56899  29.79039  37.12877  3      168
siesta:      8.06723  30.99946  40.99192  3      169
siesta:      5.10524  28.52578  36.67714  3      170
siesta:      5.77634  31.78297  37.13824  3      171
siesta:      3.63473  30.21831  39.14633  3      172
siesta:      6.15603  25.53775  40.75407  3      173
siesta:      4.85205  27.94911  42.67404  3      174
siesta:      7.95465  26.89714  43.24487  3      175
siesta:     12.68053  23.89747  37.01624  3      176
siesta:     54.91704  52.29101   4.88786  1      177
siesta:     52.23007  51.41209   4.71813  1      178
siesta:     51.66018  48.86751   4.47220  1      179
siesta:     49.13770  48.08827   4.59285  1      180
siesta:     48.54233  45.50215   4.46975  1      181
siesta:     46.04692  44.65838   4.78561  1      182
siesta:     45.38891  42.10041   4.81470  1      183
siesta:     43.01822  41.21734   5.19896  2      184
siesta:     41.20035  42.96325   5.54804  1      185
siesta:     41.62845  45.54492   5.50380  1      186
siesta:     44.09876  46.42347   5.12813  1      187
siesta:     44.68707  49.01844   5.14348  1      188
siesta:     47.20921  49.90160   4.91300  1      189
siesta:     47.96507  52.46279   5.02690  1      190
siesta:     46.15655  54.61345   5.40951  1      191
siesta:     50.42675  53.19642   4.95915  2      192
siesta:     56.25452  50.75699   4.52019  3      193
siesta:     55.27882  53.01527   6.79268  3      194
siesta:     55.26635  53.80007   3.51958  3      195
siesta:     53.17234  47.49499   4.27344  3      196
siesta:     50.04044  44.12355   4.20411  3      197
siesta:     46.80473  40.63595   4.55612  3      198
siesta:     39.31880  42.21376   5.88746  3      199
siesta:     40.06608  46.84073   5.79866  3      200
siesta:     43.15061  50.35179   5.39964  3      201
siesta:     44.19839  54.14486   4.96309  3      202
siesta:     46.68315  56.19249   4.17745  3      203
siesta:     46.25309  55.25752   7.37358  3      204

siesta: System type = molecule  

initatomlists: Number of atoms, orbitals, and projectors:    204  1311  2529

coxmol: Writing XMOL coordinates into file siesta.xyz                                                          

siesta: ******************** Simulation parameters ****************************
siesta:
siesta: The following are some of the parameters of the simulation.
siesta: A complete list of the parameters used, including default values,
siesta: can be found in file out.fdf
siesta:
redata: Spin configuration                          = collinear
redata: Number of spin components                   = 2
redata: Time-Reversal Symmetry                      = T
redata: Spin spiral                                 = F
redata: Long output                                 =   T
redata: Number of Atomic Species                    =        4
redata: Charge density info will appear in .RHO file
redata: Write Mulliken Pop.                         = Atomic and Orbital charges
redata: Matel table size (NRTAB)                    =     1024
redata: Mesh Cutoff                                 =   100.0000 Ry
redata: Net charge of the system                    =     0.0000 |e|
redata: Min. number of SCF Iter                     =        0
redata: Max. number of SCF Iter                     =      100
redata: SCF convergence failure will abort job
redata: SCF mix quantity                            = Hamiltonian
redata: Mix DM or H after convergence               =   F
redata: Recompute H after scf cycle                 =   F
redata: Mix DM in first SCF step                    =   T
redata: Write Pulay info on disk                    =   F
redata: New DM Occupancy tolerance                  = 0.000000000001
redata: No kicks to SCF
redata: DM Mixing Weight for Kicks                  =     0.5000
redata: Require Harris convergence for SCF          =   F
redata: Harris energy tolerance for SCF             =     0.000100 eV
redata: Require DM convergence for SCF              =   T
redata: DM tolerance for SCF                        =     0.001000
redata: Require EDM convergence for SCF             =   F
redata: EDM tolerance for SCF                       =     0.001000 eV
redata: Require H convergence for SCF               =   T
redata: Hamiltonian tolerance for SCF               =     0.001000 eV
redata: Require (free) Energy convergence for SCF   =   F
redata: (free) Energy tolerance for SCF             =     0.000100 eV
redata: Antiferro initial spin density              =   F
redata: Using Saved Data (generic)                  =   F
redata: Use continuation files for DM               =   F
redata: Neglect nonoverlap interactions             =   F
redata: Method of Calculation                       = Diagonalization
redata: Electronic Temperature                      =   299.9869 K
redata: Fix the spin of the system                  =   F
redata: Max. number of TDED Iter                    =        1
redata: Number of TDED substeps                     =        3
redata: Dynamics option                             = Nose thermostat MD run
redata: Initial MD time step                        =        1
redata:   Final MD time step                        =       10
redata: Length of MD time step                      =     1.0000 fs
redata: Initial Temperature of MD run               =   300.0000 K
redata: Perform a MD quench                         =   F
redata: Nose mass                                   =  1360.5800 eV/fs**2
redata: Target Temperature                          =   300.0000 Kelvin
mix.SCF: Pulay mixing                            = Pulay
mix.SCF:    Variant                              = stable
mix.SCF:    History steps                        = 3
mix.SCF:    Linear mixing weight                 =     0.250000
mix.SCF:    Mixing weight                        =     0.250000
mix.SCF:    SVD condition                        = 0.1000E-07
mix.SCF: Spin-component mixing                   all
redata: ***********************************************************************

%block SCF.Mixers
  Pulay
%endblock SCF.Mixers

%block SCF.Mixer.Pulay
  # Mixing method
  method pulay
  variant stable

  # Mixing options
  weight 0.2500
  weight.linear 0.2500
  history 3
%endblock SCF.Mixer.Pulay

Size of DM history Fstack: 1
Total number of electrons:   510.000000
Total ionic charge:   510.000000
 Kpoints in:            1 . Kpoints trimmed:            1

siesta: k-point coordinates (Bohr**-1) and weights:
siesta:          1  0.000000E+00  0.000000E+00  0.000000E+00   0.100000E+01

siesta: k-grid: Number of k-points =         1
siesta: k-points from Monkhorst-Pack grid
siesta: k-cutoff (effective) =    14.596 Ang
siesta: k-point supercell and displacements
siesta: k-grid:    1   0   0      0.000
siesta: k-grid:    0   1   0      0.000
siesta: k-grid:    0   0   1      0.000
 Kpoints in:            1 . Kpoints trimmed:            1

siesta: PDOS k-point coordinates (Bohr**-1) and weights:
siesta:          1  0.000000E+00  0.000000E+00  0.000000E+00   0.100000E+01

siesta: PDOS k-grid: Number of k-points =         1
siesta: PDOS k-points from Monkhorst-Pack grid
siesta: PDOS k-cutoff (effective) =     0.000 Ang
siesta: PDOS k-point supercell and displacements
siesta: k-grid:    1   0   0      0.000
siesta: k-grid:    0   1   0      0.000
siesta: k-grid:    0   0   1      0.000

diag: Algorithm                                     = D&C
diag: Used triangular part                          = Lower
diag: Absolute tolerance                            =  0.100E-15
diag: Orthogonalization factor                      =  0.100E-05
diag: Memory factor                                 =  1.0000
Using LatticeConstant from fdf file for BandLinesScale:    1.889727 Bohr
Beware any cell changes by the end of the run
Using LatticeConstant from fdf file for BandLinesScale:    1.889727 Bohr
Beware any cell changes by the end of the run


ts: **************************************************************
ts: Save H and S matrices                           =    F
ts: Save DM and EDM matrices                        =    F
ts: Only save the overlap matrix S                  =    F
ts: **************************************************************

************************ Begin: TS CHECKS AND WARNINGS ************************
************************ End: TS CHECKS AND WARNINGS **************************


                     ====================================
                        Begin MD step =      1
                     ====================================

outcoor: Atomic coordinates (Ang):                          
    4.16746600   23.12282100   19.53047300   1       1  C
    3.81964100   24.20552000   20.53018600   1       2  C
    4.01307600   25.59283900   19.88266400   1       3  C
    2.94612700   25.60845600   18.74334100   1       4  C
    3.36299600   24.64808800   17.60519900   1       5  C
    4.03492800   23.36518700   18.10270000   1       6  C
    4.65518000   22.52600300   17.13014300   1       7  C
    5.44630400   21.49251300   17.62527900   1       8  C
    5.41096000   21.27937600   19.02753100   1       9  C
    4.78231000   21.97494400   20.03895700   1      10  C
    6.13564800   20.17749100   19.40846700   1      11  C
    6.16225900   19.67018700   20.67090400   1      12  C
    5.59394600   20.39955200   21.72752400   1      13  C
    4.90660700   21.55803900   21.34849400   2      14  N
    6.22919600   20.64278700   16.70084800   1      15  C
    6.97793800   19.51743000   17.20601400   1      16  C
    6.86602600   19.37184500   18.53742700   1      17  C
    4.58362700   22.69177900   15.79969900   2      18  N
    5.27479300   21.83426300   14.96481200   1      19  C
    6.13493200   20.75844200   15.33679400   1      20  C
    6.77347700   19.70775800   14.47225100   1      21  C
    7.26039900   18.49021500   15.08658300   1      22  C
    7.37961800   18.39344400   16.45845600   1      23  C
    7.49789400   17.15253700   17.18108800   1      24  C
    7.60409300   17.06334100   18.57569000   1      25  C
    7.18301200   18.21286100   19.21325000   1      26  C
    6.86121000   19.69336000   13.07542100   1      27  C
    7.23218700   18.60879500   12.32134400   2      28  N
    7.49479900   17.43734000   12.95541100   1      29  C
    7.46858200   17.31913400   14.33054000   1      30  C
    7.61949800   15.96830900   15.01027800   1      31  C
    7.03482700   15.91555200   16.42268900   1      32  C
    5.50606700   25.82403000   19.45268100   1      33  C
    6.51864800   25.75137600   20.61908100   1      34  C
    7.98872700   25.89378100   20.19452000   1      35  C
    8.44174600   24.80398700   19.23196800   1      36  C
    2.50929800   26.99100800   18.22460000   1      37  C
    1.86118300   27.86721400   19.29694500   1      38  C
    5.60467900   20.04976200   23.20256000   1      39  C
    6.89331000   19.40792100   23.78491900   1      40  C
    6.79419400   19.16005700   25.27828100   1      41  C
    7.27075100   18.06693100   23.19372600   1      42  C
    5.46430400   15.70817700   16.48878100   1      43  C
    4.47946800   16.68760800   15.80641300   1      44  C
    4.35524200   18.04825900   16.43474300   1      45  C
    7.92944600   16.30194700   12.06043900   1      46  C
    6.76944400   15.43172500   11.55341500   1      47  C
    7.24287800   14.26976800   10.64704800   1      48  C
    8.18240100   13.32348300   11.40232200   1      49  C
    6.07283700   13.46984400   10.01862400   1      50  C
    5.20374400   12.70564000   11.02439500   1      51  C
    4.08923200   11.91245300   10.35743500   1      52  C
    6.75980000   18.43931500   20.48651600   2      53  N
    6.63391600   20.92205400   12.24067300   1      54  C
    4.45243700   24.13524200   21.41963100   3      55  H
    2.78918200   24.06774000   20.87725400   3      56  H
    3.76689200   26.34921800   20.63389400   3      57  H
    2.02228500   25.18296100   19.16617400   3      58  H
    4.06045200   25.16918200   16.93662000   3      59  H
    2.47813900   24.38009500   17.01400800   3      60  H
    5.03703600   22.03181600   13.92782200   3      61  H
    7.70291000   16.12538500   19.10941400   3      62  H
    7.13637300   15.17463600   14.43080500   3      63  H
    8.69065400   15.73373800   15.05875300   3      64  H
    7.46137500   15.02493600   16.91776400   3      65  H
    5.60936800   26.78965600   18.94660300   3      66  H
    5.80669300   25.07476700   18.71671700   3      67  H
    6.43329300   24.79559600   21.14746300   3      68  H
    6.28614300   26.53789800   21.34567300   3      69  H
    8.62009400   25.84358000   21.09220200   3      70  H
    8.15984500   26.87814200   19.74595900   3      71  H
    8.25433700   23.80921000   19.64950300   3      72  H
    9.51363900   24.89086900   19.02753100   3      73  H
    7.92110100   24.88093100   18.27376000   3      74  H
    1.75590100   26.84414700   17.43749600   3      75  H
    3.34692300   27.52379900   17.76585900   3      76  H
    0.93421700   27.41523200   19.66885200   3      77  H
    1.60443600   28.84765600   18.88192400   3      78  H
    2.52296000   28.03716500   20.14939100   3      79  H
    4.72493500   19.43123600   23.41575600   3      80  H
    5.44936400   20.99338900   23.74924600   3      81  H
    7.72675700   20.09372000   23.58904300   3      82  H
    5.94945600   18.50089600   25.50458000   3      83  H
    6.69170800   20.09581400   25.82582200   3      84  H
    7.70750700   18.65892600   25.62432700   3      85  H
    6.37927400   17.46120900   22.97363800   3      86  H
    7.95994700   17.44752500   23.76899500   3      87  H
    7.89367100   18.31172800   22.33970300   3      88  H
    5.16197600   15.61218000   17.54124700   3      89  H
    5.25440200   14.73071200   16.03273400   3      90  H
    3.46934000   16.27509400   15.83387600   3      91  H
    4.75404500   16.80205700   14.75225700   3      92  H
    4.39398800   18.07328900   17.52567600   3      93  H
    3.58076300   18.70322500   16.03325900   3      94  H
    5.19971100   18.55079500   16.06452000   3      95  H
    8.67251800   15.70099300   12.59779000   3      96  H
    8.46683700   16.74243800   11.21435500   3      97  H
    6.06328100   16.06538200   11.00277200   3      98  H
    6.21439100   15.02548000   12.40614100   3      99  H
    7.80878800   14.70685400    9.81244600   3     100  H
    7.75709600   13.03714800   12.37010500   3     101  H
    9.15262500   13.79300700   11.58787100   3     102  H
    8.37003000   12.41114000   10.82710400   3     103  H
    6.49776600   12.74522900    9.30963600   3     104  H
    5.44731300   14.14556400    9.42249900   3     105  H
    4.76190900   13.39847400   11.74695100   3     106  H
    5.81883000   11.99343900   11.58401300   3     107  H
    3.39096200   12.56375600    9.82304300   3     108  H
    3.52481700   11.36172700   11.11792600   3     109  H
    4.49686700   11.18250700    9.65105200   3     110  H
    6.78393600   17.66771300   21.12278700   3     111  H
    7.15368800   20.82941000   11.28676500   3     112  H
    7.04644300   21.80522300   12.74066500   3     113  H
    5.56774200   21.05756600   12.03997700   3     114  H
    5.42780000    9.41777700   18.42741200   1     115  C
    6.73165100   10.09390500   18.83895800   1     116  C
    7.36855300   10.88714700   17.68467300   1     117  C
    8.68656200   11.61421300   17.98504900   1     118  C
    9.83912100   11.26542600   17.25366100   1     119  C
    9.74737400   10.21413900   16.37377700   4     120  O
   11.06908600   11.95978300   17.38884300   1     121  C
   12.22472600   11.63574700   16.64350900   1     122  C
   13.41233700   12.34107700   16.83541500   1     123  C
   13.44474100   13.39308500   17.74618200   1     124  C
   12.32990600   13.77011600   18.47806100   1     125  C
   12.42387100   14.80003900   19.32418200   2     126  N
   11.34569000   15.16124600   20.06837800   1     127  C
   11.58517900   16.32100900   21.01544700   1     128  C
   11.35281800   17.73584500   20.43055000   1     129  C
    9.91997500   17.96986700   19.94658300   1     130  C
   11.70249800   18.79904100   21.48118800   1     131  C
   10.09832600   14.48900000   19.98402400   1     132  C
    8.95745900   14.84294100   20.74394900   1     133  C
    7.72038200   14.21923600   20.55687400   1     134  C
    6.47637400   14.66717500   21.30251300   1     135  C
    5.27736800   15.00577100   20.37594300   1     136  C
    4.01222500   15.50236700   21.12227900   1     137  C
    2.86600300   15.87044600   20.16456000   1     138  C
    3.48613600   14.44608800   22.09404100   1     139  C
    7.67321900   13.14127000   19.67725500   1     140  C
    8.76870400   12.69945900   18.90970600   1     141  C
   10.00107400   13.41001200   19.07048200   1     142  C
   11.12830800   13.03300700   18.30378200   1     143  C
    4.88906600    9.07906200   19.31959400   3     144  H
    5.61842300    8.54385700   17.79822100   3     145  H
    4.76771100   10.10252300   17.88384200   3     146  H
    7.43044000    9.34337600   19.22225300   3     147  H
    6.48984600   10.73296300   19.68773700   3     148  H
    6.66372200   11.63749900   17.30351100   3     149  H
    7.50067700   10.18705900   16.85089500   3     150  H
   10.52539600    9.64952100   16.51788700   3     151  H
   12.21644100   10.84402500   15.90330700   3     152  H
   14.30477100   12.07354200   16.27361200   3     153  H
   14.37643800   13.94123800   17.89074600   3     154  H
   12.64068700   16.26015900   21.32921700   3     155  H
   11.02320800   16.18969200   21.94170700   3     156  H
   12.02514300   17.88279700   19.57565300   3     157  H
    9.18441100   17.60172900   20.66514600   3     158  H
    9.74980100   17.47458200   18.98553100   3     159  H
    9.71161800   19.03632000   19.80941500   3     160  H
   10.99830800   18.77867800   22.32061900   3     161  H
   11.66665600   19.80198600   21.04039800   3     162  H
   12.71155800   18.64977900   21.87852400   3     163  H
    9.01110300   15.63445400   21.47996900   3     164  H
    6.70973600   15.54457000   21.91764800   3     165  H
    6.20622200   13.86091000   21.99460200   3     166  H
    5.00659700   14.11633900   19.79353700   3     167  H
    5.59286700   15.76439000   19.64769000   3     168  H
    4.26899000   16.40420200   21.69198200   3     169  H
    2.70157500   15.09518500   19.40869800   3     170  H
    3.05670400   16.81881800   19.65270000   3     171  H
    1.92341600   15.99083400   20.71534000   3     172  H
    3.25762900   13.51398900   21.56611700   3     173  H
    2.56759500   14.79002600   22.58211800   3     174  H
    4.20941700   14.23334700   22.88419200   3     175  H
    6.71024500   12.64599200   19.58814100   3     176  H
   29.06083200   27.67120200    2.58654200   1     177  C
   27.63895400   27.20609400    2.49672500   1     178  C
   27.33738000   25.85956400    2.36658700   1     179  C
   26.00254300   25.44720900    2.43043000   1     180  C
   25.68748300   24.07869100    2.36528800   1     181  C
   24.36696900   23.63218800    2.53243600   1     182  C
   24.01876500   22.27856900    2.54782800   1     183  C
   22.76425100   21.81127000    2.75116800   2     184  N
   21.80227800   22.73516500    2.93589400   1     185  C
   22.02881800   24.10132400    2.91248300   1     186  C
   23.33605000   24.56623300    2.71369100   1     187  C
   23.64737200   25.93943300    2.72181200   1     188  C
   24.98203000   26.40678000    2.59984900   1     189  C
   25.38201000   27.76210000    2.66012200   1     190  C
   24.42498600   28.90018300    2.86258700   1     191  C
   26.68467800   28.15032100    2.62427000   2     192  N
   29.76859700   26.85943300    2.39198200   3     193  H
   29.25227900   28.05446400    3.59452800   3     194  H
   29.24567900   28.46975800    1.86248000   3     195  H
   28.13757800   25.13325800    2.26140400   3     196  H
   26.48025000   23.34916700    2.22471800   3     197  H
   24.76798500   21.50361000    2.41099200   3     198  H
   20.80660400   22.33854900    3.11550600   3     199  H
   21.20204900   24.78703600    3.06851800   3     200  H
   22.83430900   26.64501000    2.85736700   3     201  H
   23.38877200   28.65221300    2.62635200   3     202  H
   24.70364800   29.73577500    2.21061200   3     203  H
   24.47607100   29.24100800    3.90192700   3     204  H

outcell: Unit cell vectors (Ang):
       36.834380    0.000000    0.000000
        0.000000   29.191918    0.000000
        0.000000    0.000000   31.963342

outcell: Cell vector modules (Ang)   :   36.834380   29.191918   31.963342
outcell: Cell angles (23,13,12) (deg):     90.0000     90.0000     90.0000
outcell: Cell volume (Ang**3)        :  34369.1013
<dSpData1D:S at geom step 1
  <sparsity:sparsity for geom step 1
    nrows_g=1311 nrows=1311 sparsity=.2023 nnzs=347765, refcount: 7>
  <dData1D:(new from dSpData1D) n=347765, refcount: 1>
refcount: 1>
new_DM -- step:     1
Initializing Density Matrix...
DM filled with atomic data:
<dSpData2D:DM initialized from atoms
  <sparsity:sparsity for geom step 1
    nrows_g=1311 nrows=1311 sparsity=.2023 nnzs=347765, refcount: 8>
  <dData2D:DM n=347765 m=2, refcount: 1>
refcount: 1>
     spin moment: S , {S} =  310.00000       0.0       0.0 310.00000
No. of atoms with KB's overlaping orbs in proc 0. Max # of overlaps:     204     166

InitMesh: MESH = 240 x 180 x 200 = 8640000
InitMesh: Mesh cutoff (required, used) =   100.000   105.080 Ry
New grid distribution [1]: sub = 2

stepf: Fermi-Dirac step function

siesta: Program's energy decomposition (eV):
siesta: Ebs     =     -6176.299124
siesta: Eions   =     28746.582522
siesta: Ena     =      5965.098579
siesta: Ekin    =     12684.741988
siesta: Enl     =     -1771.632400
siesta: Eso     =         0.000000
siesta: Edftu   =         0.000000
siesta: DEna    =      -180.353013
siesta: DUscf   =        55.101042
siesta: DUext   =         0.000000
siesta: Exc     =     -6598.326736
siesta: eta*DQ  =         0.000000
siesta: Emadel  =         0.000000
siesta: Emeta   =         0.000000
siesta: Emolmec =         0.000000
siesta: Ekinion =         0.000000
siesta: Eharris =    -18538.106098
siesta: Etot    =    -18591.953061
siesta: FreeEng =    -18591.953309

        iscf     Eharris(eV)        E_KS(eV)     FreeEng(eV)     dDmax    Ef(eV) dHmax(eV)
   scf:    1   -18538.106098   -18591.953061   -18591.953309  0.852799 -5.061546  8.313351
     spin moment: S , {S} =    8.00076       0.0       0.0   8.00076
timer: Routine,Calls,Time,% = IterSCF        1      23.859  46.63
   scf:    2   -18597.622849   -18602.257914   -18602.303190  0.190642 -4.930618 11.735048
     spin moment: S , {S} =    5.99001       0.0       0.0   5.99001
   scf:    3   -18570.426142   -18602.033227   -18602.083256  0.216923 -4.976516 11.511713
     spin moment: S , {S} =    4.66346       0.0       0.0   4.66346
   scf:    4   -18624.152345   -18616.446536   -18616.484007  0.138385 -4.865340  7.155227
     spin moment: S , {S} =    0.91253       0.0       0.0   0.91253
   scf:    5   -18619.597630   -18618.938187   -18618.963024  0.073527 -4.951749  2.770221
     spin moment: S , {S} =    0.37002       0.0       0.0   0.37002
   scf:    6   -18620.734332   -18619.978110   -18619.978111  0.038222 -4.921036  1.562384
     spin moment: S , {S} =    0.00000       0.0       0.0   0.00000
   scf:    7   -18620.527831   -18620.279224   -18620.279224  0.016202 -4.898321  1.186465
     spin moment: S , {S} =    0.00000       0.0       0.0   0.00000
   scf:    8   -18620.476864   -18620.386770   -18620.386770  0.011187 -4.814651  0.359760
     spin moment: S , {S} =    0.00000       0.0       0.0   0.00000
   scf:    9   -18620.423345   -18620.406272   -18620.406272  0.004625 -4.831394  0.138408
     spin moment: S , {S} =   -0.00000       0.0       0.0  -0.00000
   scf:   10   -18620.417295   -18620.412069   -18620.412069  0.001853 -4.853141  0.088062
     spin moment: S , {S} =   -0.00000       0.0       0.0  -0.00000
   scf:   11   -18620.417140   -18620.414717   -18620.414717  0.001540 -4.863811  0.050644
     spin moment: S , {S} =    0.00000       0.0       0.0   0.00000
   scf:   12   -18620.416377   -18620.415564   -18620.415564  0.001246 -4.862833  0.027117
     spin moment: S , {S} =   -0.00000       0.0       0.0  -0.00000
   scf:   13   -18620.415965   -18620.415770   -18620.415770  0.000646 -4.861149  0.015485
     spin moment: S , {S} =   -0.00000       0.0       0.0  -0.00000
   scf:   14   -18620.415955   -18620.415864   -18620.415864  0.000496 -4.857816  0.010749
     spin moment: S , {S} =    0.00000       0.0       0.0   0.00000
   scf:   15   -18620.415928   -18620.415898   -18620.415898  0.000274 -4.856092  0.006409
     spin moment: S , {S} =   -0.00000       0.0       0.0  -0.00000
   scf:   16   -18620.415917   -18620.415908   -18620.415908  0.000114 -4.855011  0.003846
     spin moment: S , {S} =    0.00000       0.0       0.0   0.00000
   scf:   17   -18620.415922   -18620.415918   -18620.415918  0.000103 -4.854382  0.001756
     spin moment: S , {S} =    0.00000       0.0       0.0   0.00000
   scf:   18   -18620.415919   -18620.415918   -18620.415918  0.000038 -4.854297  0.001131
     spin moment: S , {S} =    0.00000       0.0       0.0   0.00000
   scf:   19   -18620.415919   -18620.415919   -18620.415919  0.000022 -4.854280  0.000701
     spin moment: S , {S} =   -0.00000       0.0       0.0  -0.00000

SCF Convergence by DM+H criterion
max |DM_out - DM_in|         :     0.0000218574
max |H_out - H_in|      (eV) :     0.0007006662
SCF cycle converged after 19 iterations

Using DM_out to compute the final energy and forces
No. of atoms with KB's overlaping orbs in proc 0. Max # of overlaps:     204     166

siesta: E_KS(eV) =           -18620.4159

siesta: E_KS - E_eggbox =    -18620.4159
     spin moment: S , {S} =   -0.00000       0.0       0.0  -0.00000

siesta: Atomic forces (eV/Ang):
     1   -1.270290    2.671671   -1.244920
     2    0.857288    0.938454   -2.492005
     3    0.472752   -1.509056   -1.789715
     4    1.603188    0.737270   -0.530940
     5    0.647341   -0.194664    2.834981
     6   -0.549838    1.229328    2.168033
     7    0.475692   -0.556444    0.254540
     8    1.146659   -1.131048   -0.484783
     9    1.575489   -1.523501   -1.743716
    10    0.377783   -1.137398    0.920073
    11    0.323267    1.305931   -1.349773
    12    0.003550   -1.272690    1.607512
    13   -1.208558    1.905469   -0.683907
    14    0.202521    0.409039    1.905536
    15    0.094229   -0.234911    2.451122
    16   -0.246808    1.174241   -1.603499
    17    0.041791    0.026204    1.064301
    18    0.044399    0.669209   -2.250611
    19   -0.648837    0.942917    2.411139
    20    0.131581   -0.030053   -2.108732
    21   -0.243421    0.107707    1.286537
    22   -0.921041    0.111220   -1.855323
    23   -0.111539   -0.295277    2.739705
    24   -0.463501   -0.750254   -1.045162
    25   -0.534438    1.113617   -1.534756
    26    0.388801    0.283951    0.926174
    27    0.192629   -0.397810   -1.661431
    28   -0.193791    1.472153   -0.645557
    29   -0.022302   -0.050432   -0.952232
    30   -0.217205   -0.879334    0.445505
    31   -1.004855    1.961545    0.865245
    32   -0.555480    1.512229   -0.756594
    33   -1.089905   -0.857843    2.304587
    34    0.201986    0.328686   -2.331707
    35   -1.612668   -1.565453   -0.733524
    36   -0.744361    1.502720    1.186291
    37   -0.020856   -1.027576    2.069915
    38    0.960982   -1.337662   -1.363064
    39    2.375556   -0.581111   -0.990717
    40   -1.447428   -1.149822    0.491473
    41   -0.052696    0.634415   -1.758089
    42   -0.394859    1.359324   -0.147552
    43    1.147378    2.283025   -1.251855
    44    1.199200    0.092570    1.778690
    45   -0.059398   -1.752660   -0.553177
    46   -2.124612   -0.191452    0.640752
    47    2.230344   -0.901618   -0.782489
    48   -1.181933   -0.763370    1.563370
    49   -1.444569    1.481311   -0.972874
    50    0.508013    0.148038    2.572917
    51    0.063946    0.211085   -2.232266
    52    1.480931    1.085887    0.858571
    53    0.887733    0.104846    0.241394
    54    0.114417   -1.085739    1.541388
    55    1.313234   -0.590803    1.581951
    56   -1.944819    0.025255    0.612991
    57   -0.615175    1.453326    1.458607
    58   -1.334335   -0.719974    0.946025
    59    1.293942    0.781969   -1.369752
    60   -1.551766   -0.440129   -1.208623
    61   -0.285400    0.331990   -2.867207
    62    0.230361   -2.388984    1.108194
    63   -0.793162   -1.341867   -1.437901
    64    1.937353   -0.601159    0.196619
    65    0.617548   -1.398306    0.880628
    66    0.103890    1.900548   -0.845057
    67    0.363125   -1.600944   -1.443708
    68   -0.319719   -1.828271    0.820329
    69   -0.441959    1.402248    1.340803
    70    0.960293   -0.043106    1.537378
    71    0.264524    1.799103   -0.849630
    72   -0.433885   -1.758770    0.724684
    73    1.857066    0.153516   -0.328711
    74   -0.994379    0.085794   -1.654110
    75   -1.115824   -0.368683   -1.388348
    76    1.667325    0.965153   -0.874054
    77   -1.533641   -0.853738    0.644901
    78   -0.428101    1.656723   -0.729511
    79    1.252033    0.259231    1.545595
    80   -1.598959   -1.368614    0.577193
    81   -0.416327    1.588464    0.774742
    82    1.380712    1.265359   -0.287923
    83   -1.529715   -1.114607    0.365917
    84   -0.354385    1.806028    1.179311
    85    1.426846   -0.753944    0.454289
    86   -1.380910   -0.940376   -0.527220
    87    1.001854   -0.917418    1.748069
    88    0.717577    0.184270   -2.093149
    89   -0.369899   -0.134329    1.947739
    90   -0.103209   -1.721236   -0.752205
    91   -1.730768   -1.423258   -0.049844
    92    0.528939    0.284416   -1.934209
    93    0.084510    0.010297    2.087328
    94   -1.877547    0.729770   -0.596497
    95    2.984143    1.942691   -0.693421
    96    1.108060   -1.299210    1.078355
    97    0.800993    0.916763   -1.669281
    98   -1.190701    1.181180   -0.999339
    99   -1.007376   -0.818607    1.609357
   100    0.971748    0.802508   -1.430432
   101   -0.829253   -0.490224    1.657354
   102    1.629150    0.905579    0.366952
   103    0.218459   -1.582083   -1.049852
   104    0.749808   -1.215961   -1.134569
   105   -1.164979    1.227301   -0.966583
   106   -0.750673    1.330759    1.335243
   107    1.279689   -1.148791    1.042164
   108   -1.188167    1.174152   -0.971333
   109   -0.998395   -0.946603    1.238171
   110    0.743028   -1.236424   -1.265549
   111   -0.026159   -2.255136    2.480415
   112    0.919554   -0.519111   -1.791845
   113    0.406528    1.612355    1.038818
   114   -2.014824    0.462741   -0.372964
   115    1.828501    0.864894    0.379202
   116   -0.797162    0.495303   -2.013152
   117    1.155439    0.023940    2.346468
   118   -0.245069   -0.993748   -0.798221
   119   -1.379999   -0.482470    0.439381
   120   -2.441494    1.495148   -1.926435
   121    0.594217    0.003799   -0.224542
   122   -0.249704    1.002443    1.152429
   123   -1.614145    0.400430    0.957653
   124    0.045577   -0.886237   -0.809780
   125   -1.168011   -0.822615   -0.307403
   126    0.251720    1.937211    2.403753
   127    1.866587    0.447162   -0.454602
   128   -0.586123    0.609772   -2.141604
   129   -1.387042   -0.056734    1.710340
   130    2.256303   -0.567302    0.653405
   131   -0.420928   -1.720383   -1.487933
   132   -0.783951   -0.081054    0.277778
   133   -0.114599   -0.739952   -1.067725
   134   -0.037919    0.457016    0.348839
   135   -0.331282   -0.045349   -2.554584
   136   -0.245526    0.235650    2.444224
   137   -0.380201   -1.844400   -1.092335
   138    1.908130   -0.466158    1.325257
   139    0.965422    1.485778   -1.329859
   140    0.535206    0.284345   -0.263686
   141   -0.124144    0.288744    0.150547
   142   -0.170108   -0.435658   -0.408404
   143   -0.243322    0.240848    0.346555
   144   -0.897241   -0.616005    1.484047
   145    0.308760   -1.512305   -1.191439
   146   -1.079175    1.239585   -0.973051
   147    1.332545   -1.319454    0.609079
   148   -0.219957    1.406370    1.693352
   149   -1.442612    1.390949   -0.467030
   150    0.663762   -1.192583   -1.492577
   151    2.461189   -1.417452    0.351869
   152   -0.231390   -1.840250   -1.689691
   153    1.906566   -0.551411   -1.220693
   154    1.850423    1.285708    0.423738
   155    1.694127   -0.073232    0.267164
   156   -1.373228   -0.140945    1.719762
   157    1.259507    0.051904   -1.499558
   158   -1.344658   -0.822279    1.280364
   159   -0.425885   -0.953937   -1.537322
   160   -0.320518    1.849093   -0.276550
   161   -1.289522   -0.135331    1.430345
   162   -0.153088    1.622183   -0.811559
   163    1.773369   -0.330925    0.722648
   164    0.286364    1.969603    1.601685
   165    0.570100    1.603682    1.220759
   166   -0.742307   -1.416305    1.315639
   167   -0.471086   -1.627462   -1.040565
   168    0.655276    1.515925   -1.327603
   169    0.537143    1.700643    1.083496
   170   -0.184547   -1.436325   -1.305238
   171    0.454562    1.635213   -1.029739
   172   -1.419133    0.139081    0.993681
   173   -0.372183   -1.602737   -1.001177
   174   -1.544523    0.638896    0.711287
   175    1.388163   -0.450793    1.390062
   176   -2.065853   -1.195952   -0.493937
   177   -1.644181   -0.769231   -0.322029
   178    0.529035   -0.958341   -0.001242
   179   -0.264927    1.581575    0.123833
   180    0.282683   -1.365208   -0.256993
   181   -1.335529    0.959931    0.271779
   182    1.369513    0.156448   -0.221238
   183   -2.736840   -0.217908    0.439432
   184    1.363217   -1.377548   -0.783943
   185    1.277384    1.519764   -0.259501
   186    0.477967   -1.482528   -0.157715
   187   -0.275042    1.696262    0.086519
   188    1.543286   -0.543663   -0.221493
   189   -1.539223   -0.188877    0.094640
   190    1.301825    1.235255    0.087437
   191    0.762151   -1.673990   -0.496228
   192   -1.292490    1.679862   -0.088046
   193    1.132851   -1.458488   -0.327533
   194    0.376309    0.841503    1.792582
   195    0.336222    1.603590   -1.239139
   196    1.698636   -1.693921   -0.233559
   197    1.795821   -1.613023   -0.292880
   198    2.050892   -1.712227   -0.378060
   199   -2.493240   -0.796114    0.428442
   200   -1.803957    1.674571    0.350576
   201   -1.819902    1.634648    0.353776
   202   -1.902561   -0.604206   -0.361852
   203    0.688203    1.454019   -1.016709
   204    0.063866    0.695980    1.907072
----------------------------------------
   Tot    0.065430    1.867417   -1.649177
----------------------------------------
   Max    2.984143
   Res    1.193138    sqrt( Sum f_i^2 / 3N )
----------------------------------------
   Max    2.984143    constrained

Stress tensor Voigt[x,y,z,yz,xz,xy] (kbar):       -3.80       -5.23       -5.35       -0.04        0.26        0.41
(Free)E + p*V (eV/cell)   -18517.5972
Target enthalpy (eV/cell)   -18620.4159

siesta: Stress tensor (static) (eV/Ang**3):
        -0.002219    0.000264    0.000173
         0.000264   -0.003103   -0.000003
         0.000173   -0.000003   -0.003198

siesta: Pressure (static):          4.55025845  kBar

siesta: Stress tensor (total) (eV/Ang**3):
        -0.002374    0.000254    0.000163
         0.000254   -0.003262   -0.000023
         0.000163   -0.000023   -0.003339

siesta: Pressure (total):          4.79313020  kBar

mulliken: Atomic and Orbital Populations:

mulliken: Spin UP 

Species: C                   
Atom  Qatom  Qorb
               2s      2py     2pz     2px     3Pdxy   3Pdyz   3Pdz2   3Pdxz   
               3Pdx2-y2
   1  1.997   0.478   0.504   0.510   0.479   0.000   0.010   0.009   0.004
              0.003
   2  2.136   0.493   0.509   0.544   0.564   0.000   0.010  -0.001   0.008
              0.009
   3  2.070   0.496   0.519   0.526   0.504   0.001   0.006   0.002   0.007
              0.009
   4  2.064   0.491   0.508   0.508   0.531   0.003   0.005   0.003   0.009
              0.006
   5  2.141   0.496   0.516   0.544   0.556   0.005   0.009  -0.000   0.008
              0.006
   6  2.001   0.484   0.499   0.505   0.490  -0.000   0.008   0.006   0.008
              0.001
   7  1.970   0.434   0.509   0.465   0.500   0.002   0.026   0.007   0.022
              0.006
   8  1.992   0.461   0.505   0.511   0.496   0.001   0.003   0.004   0.006
              0.005
   9  1.997   0.441   0.510   0.522   0.501  -0.001   0.005   0.006   0.008
              0.006
  10  1.982   0.430   0.518   0.465   0.505   0.002   0.019   0.019   0.018
              0.005
  11  1.982   0.435   0.514   0.517   0.501   0.002   0.004   0.001   0.006
              0.003
  12  1.965   0.433   0.459   0.538   0.498   0.006   0.009   0.007   0.004
              0.011
  13  1.978   0.469   0.464   0.507   0.477   0.011   0.017   0.017   0.005
              0.011
  15  2.000   0.466   0.500   0.521   0.487   0.002   0.004   0.008   0.007
              0.005
  16  2.012   0.447   0.512   0.535   0.489   0.006   0.005   0.006   0.007
              0.005
  17  1.993   0.428   0.517   0.524   0.508   0.000   0.005   0.000   0.007
              0.004
  19  2.018   0.475   0.480   0.530   0.480   0.013   0.005   0.020   0.005
              0.010
  20  2.024   0.463   0.504   0.524   0.497   0.006   0.007   0.011   0.005
              0.008
  21  2.017   0.469   0.502   0.516   0.503   0.004   0.005   0.007   0.008
              0.004
  22  2.012   0.455   0.516   0.523   0.486   0.007   0.005   0.006   0.010
              0.005
  23  2.020   0.449   0.512   0.521   0.507   0.005   0.009   0.005   0.008
              0.004
  24  1.991   0.479   0.509   0.511   0.466   0.004   0.006   0.007   0.007
              0.002
  25  2.079   0.469   0.544   0.532   0.506   0.004   0.007   0.009   0.005
              0.003
  26  1.954   0.436   0.534   0.454   0.490   0.004   0.008   0.006   0.015
              0.006
  27  1.959   0.461   0.475   0.500   0.466   0.002   0.025   0.019   0.008
              0.003
  29  1.958   0.455   0.469   0.508   0.470   0.004   0.024   0.016   0.008
              0.003
  30  1.995   0.464   0.507   0.520   0.483  -0.000   0.007   0.007   0.004
              0.004
  31  2.144   0.492   0.533   0.527   0.563   0.008   0.005   0.004   0.005
              0.007
  32  2.076   0.492   0.529   0.513   0.510   0.009   0.006   0.005   0.006
              0.007
  33  2.137   0.501   0.566   0.540   0.508   0.000   0.006   0.002   0.006
              0.007
  34  2.137   0.500   0.565   0.538   0.512  -0.000   0.007   0.002   0.006
              0.008
  35  2.142   0.499   0.546   0.548   0.525   0.001   0.007   0.003   0.005
              0.008
  36  2.214   0.515   0.553   0.559   0.567   0.001   0.006   0.003   0.003
              0.006
  37  2.140   0.498   0.522   0.541   0.555   0.005   0.006   0.002   0.008
              0.003
  38  2.215   0.517   0.560   0.554   0.564   0.003   0.005   0.002   0.006
              0.003
  39  2.148   0.497   0.567   0.515   0.540   0.007   0.005   0.008   0.006
              0.003
  40  2.083   0.486   0.523   0.514   0.528   0.009   0.004   0.010   0.004
              0.006
  41  2.201   0.513   0.570   0.531   0.571   0.005   0.001   0.008  -0.000
              0.003
  42  2.204   0.506   0.540   0.571   0.563   0.007   0.004   0.001   0.006
              0.005
  43  2.130   0.509   0.546   0.558   0.498   0.002   0.003   0.007   0.001
              0.007
  44  2.148   0.497   0.525   0.554   0.545   0.008   0.005   0.006   0.003
              0.005
  45  2.229   0.508   0.544   0.564   0.589   0.004   0.006   0.006   0.005
              0.004
  46  2.147   0.493   0.532   0.551   0.542   0.011   0.010  -0.002   0.009
              0.001
  47  2.132   0.500   0.529   0.547   0.536   0.006   0.006   0.002   0.006
              0.001
  48  2.075   0.492   0.510   0.529   0.516   0.008   0.009   0.002   0.008
              0.002
  49  2.203   0.513   0.554   0.561   0.558   0.004   0.005   0.004   0.002
              0.002
  50  2.128   0.499   0.543   0.538   0.529   0.006   0.008  -0.000   0.007
             -0.001
  51  2.143   0.496   0.547   0.543   0.533   0.007   0.008   0.000   0.008
              0.000
  52  2.214   0.516   0.562   0.565   0.552   0.006   0.007   0.001   0.006
              0.000
  54  2.222   0.510   0.546   0.566   0.574   0.005   0.009  -0.000   0.005
              0.008
 115  2.213   0.517   0.565   0.570   0.542   0.005   0.005   0.002   0.004
              0.003
 116  2.146   0.499   0.548   0.541   0.532   0.006   0.008   0.003   0.005
              0.002
 117  2.148   0.497   0.551   0.550   0.522   0.010   0.007   0.003   0.007
              0.001
 118  2.007   0.473   0.505   0.496   0.507   0.003   0.003   0.006   0.006
              0.008
 119  1.943   0.455   0.441   0.451   0.528   0.020   0.003   0.022   0.016
              0.008
 121  2.018   0.451   0.511   0.510   0.514   0.009   0.003   0.007   0.006
              0.007
 122  2.065   0.475   0.525   0.521   0.522   0.008   0.003   0.002   0.008
              0.002
 123  2.070   0.475   0.513   0.513   0.542   0.004   0.003   0.005   0.005
              0.009
 124  2.054   0.472   0.516   0.503   0.544   0.003   0.001   0.006   0.004
              0.006
 125  1.971   0.432   0.474   0.480   0.523   0.022   0.002   0.011   0.016
              0.011
 127  1.949   0.468   0.488   0.466   0.474   0.013   0.006   0.007   0.010
              0.018
 128  2.139   0.494   0.509   0.540   0.570  -0.002   0.006   0.006   0.005
              0.012
 129  2.080   0.491   0.495   0.534   0.530   0.002   0.008   0.003   0.008
              0.009
 130  2.196   0.511   0.571   0.567   0.529   0.001   0.002   0.004   0.005
              0.006
[...]
   35.3451   35.4336   35.5136   35.6252   35.6391   35.6894   35.8191   35.8566   36.0348   36.0990
   36.1674   36.3763   36.4580   36.5000   36.5694   36.6135   36.6662   36.9273   36.9625   37.0887
   37.2155   37.3770   37.4401   37.6150   37.7078   37.7397   37.7742   37.8078   37.9204   37.9835
   38.0960   38.1161   38.2645   38.2897   38.3627   38.5203   38.5626   38.5771   38.7275   38.7720
   38.8222   38.9070   39.0819   39.2274   39.2419   39.3566   39.4419   39.6156   39.7539   39.7608
   39.8237   39.9447   39.9919   40.0827   40.2779   40.2842   40.4517   40.5060   40.5926   40.6958
   40.7870   40.8271   40.9273   40.9699   41.1240   41.1790   41.2613   41.3132   41.4277   41.4357
   41.4848   41.5491   41.5870   41.6752   41.8232   41.8307   41.9551   42.1326   42.2274   42.3086
   42.3669   42.4775   42.5747   42.7066   42.8375   42.9224   43.0338   43.0512   43.1116   43.2795
   43.3118   43.4986   43.5839   43.6421   43.6737   43.7552   43.7822   43.9442   44.0524   44.1846
   44.2192   44.2453   44.3941   44.4610   44.5795   44.6241   44.6598   44.7018   44.8807   44.9256
   44.9886   45.0465   45.1678   45.3193   45.3591   45.3739   45.5261   45.5637   45.7065   45.7768
   45.8108   45.8647   45.9829   46.1064   46.2819   46.4027   46.4910   46.5273   46.6340   46.7009
   46.8186   46.9110   47.0629   47.1315   47.2175   47.3774   47.4750   47.5023   47.5372   47.5662
   47.7578   47.9029   47.9965   48.1562   48.1896   48.3590   48.5246   48.6994   48.7620   48.9283
   48.9537   49.0352   49.0496   49.2140   49.3412   49.3645   49.4753   49.5018   49.7370   49.8973
   49.9360   49.9878   50.0664   50.1735   50.2233   50.3873   50.4528   50.6394   50.6868   50.7709
   50.8408   50.8429   50.8952   51.1639   51.3866   51.4263   51.4897   51.6011   51.8117   52.2016
   52.2856   52.3915   52.4164   52.5378   52.5817   52.7468   52.9581   53.0842   53.3012   53.4343
   53.4834   53.6088   53.6722   53.8366   54.0517   54.1748   54.2741   54.3208   54.5001   54.5394
   54.5841   54.7537   54.8472   55.0134   55.1048   55.3006   55.5144   55.7642   55.8108   55.9732
   56.1153   56.2056   56.2531   56.3780   56.5177   56.9211   56.9693   57.0405   57.0837   57.3602
   57.4986   57.5119   57.8350   57.8695   58.3066   58.4128   58.6243   58.7653   58.8215   58.9290
   59.3794   59.5029   59.5704   59.7770   59.8999   59.9302   60.0378   60.0592   60.3275   60.6789
   60.8220   60.9954   61.0577   61.1623   61.3084   61.6390   61.8737   61.9683   62.3529   62.4244
   62.6796   62.7340   63.1288   63.2247   63.5103   63.5738   63.8330   64.0605   64.2932   64.4464
   64.7905   65.1393   65.2899   65.4298   65.6687   65.8997   66.0677   66.2076   66.3390   66.4428
   66.5116   66.7946   67.0259   67.1272   67.2450   67.3198   67.4871   67.5233   67.7787   67.9900
   68.2678   68.4466   68.6502   68.8659   68.8709   68.9576   69.1443   69.2259   69.6085   69.7921
   69.8557   70.2328   70.8159   70.9275   71.1339   71.4217   71.6703   71.9504   72.0537   72.4642
   72.4648   72.6704   72.7491   72.9070   73.4014   73.7476   73.7648   73.9083   74.3073   74.4186
   74.8783   74.9205   75.2735   75.8314   76.1028   76.1568   76.1774   77.5776   77.9015   78.0587
   79.7597   79.8951   80.0812   80.2856   81.0501   81.4826   82.6386   83.1861   84.2115   85.0844
   87.4924   88.4498   90.1770   91.3444   91.7130   91.9307   94.6804   97.1980   98.7534   99.4285
  103.5812

siesta: PDOS info
siesta: E1 -- E2, sigma [eV], nhist:  -10.000 --   10.000    0.200 500

siesta: Program's energy decomposition (eV):
siesta: Ebs     =     -6591.408534
siesta: Eions   =     28746.582522
siesta: Ena     =      5959.294404
siesta: Ekin    =     12148.685506
siesta: Enl     =     -1636.492013
siesta: Eso     =         0.000000
siesta: Edftu   =         0.000000
siesta: DEna    =        92.613500
siesta: DUscf   =        24.456919
siesta: DUext   =         0.000000
siesta: Exc     =     -6466.652870
siesta: eta*DQ  =         0.000000
siesta: Emadel  =         0.000000
siesta: Emeta   =         0.000000
siesta: Emolmec =         0.000000
siesta: Ekinion =        10.391030
siesta: Eharris =    -18614.286047
siesta: Etot    =    -18614.286047
siesta: FreeEng =    -18614.286047

siesta: Final energy (eV):
siesta:  Band Struct. =   -6591.408534
siesta:       Kinetic =   12148.685506
siesta:       Hartree =  116472.000960
siesta:       Edftu   =       0.000000
siesta:       Eso     =       0.000000
siesta:    Ext. field =       0.000000
siesta:   Exch.-corr. =   -6466.652870
siesta:  Ion-electron = -244191.043974
siesta:       Ion-ion =  103412.333302
siesta:       Ekinion =      10.391030
siesta:         Total =  -18614.286047
siesta:         Fermi =      -4.927949

siesta: Atomic forces (eV/Ang):
siesta:      1   -0.365969    0.370240    1.377260
siesta:      2    0.171674   -0.402109    1.033336
siesta:      3   -0.168882    1.753382    1.719542
siesta:      4   -1.410363   -1.166522    0.100762
siesta:      5   -0.903814   -1.250644    2.397951
siesta:      6    1.093152   -0.437583   -3.695388
siesta:      7   -0.134382   -0.341164   -0.195856
siesta:      8   -0.315467    1.317870    0.985432
siesta:      9   -0.287522    0.556766    1.918045
siesta:     10   -0.559323    0.196992   -2.074622
siesta:     11    1.141021   -1.796132    1.720333
siesta:     12   -0.467266    0.670745   -0.783486
siesta:     13    0.222850   -1.524367    1.019824
siesta:     14    0.375551    1.803722    1.012101
siesta:     15    0.008638    0.419863   -3.277728
siesta:     16    0.750071   -0.561410    2.295573
siesta:     17    0.329590   -0.010960    0.193637
siesta:     18   -1.576317    1.510323    0.495577
siesta:     19    0.591630   -1.238862   -0.912524
siesta:     20    0.196787    0.082751    0.668977
siesta:     21   -0.466362   -0.495814   -0.695311
siesta:     22   -0.765207    0.574422   -0.029554
siesta:     23   -0.651513    1.054443   -2.056026
siesta:     24    0.903558   -1.686461    1.091502
siesta:     25   -0.161783   -0.508947    0.805236
siesta:     26   -0.111679    0.224981   -0.257528
siesta:     27   -0.054398    1.261601    0.898955
siesta:     28    0.093510   -2.045908    0.428282
siesta:     29   -0.457839   -1.352129    0.352331
siesta:     30    0.105574    1.250281   -0.788443
siesta:     31   -0.314324   -0.821724   -0.113373
siesta:     32   -0.597721   -0.816203   -1.286776
siesta:     33   -0.068738   -2.082683   -0.424062
siesta:     34   -0.802937    0.571558    1.311265
siesta:     35    0.746409    0.339474   -0.995290
siesta:     36    0.134259    0.198071    0.544088
siesta:     37    1.133405    0.155611    0.640264
siesta:     38    0.113704   -0.165640   -1.037480
siesta:     39    0.448856    0.345288   -0.967501
siesta:     40   -0.571354   -0.152222   -0.648906
siesta:     41   -0.216214    1.366952    1.266401
siesta:     42   -0.638996   -1.003187   -0.178914
siesta:     43   -0.262882   -1.119974    0.186510
siesta:     44    1.692275    0.007422   -1.844412
siesta:     45    0.187794    2.298973    1.846549
siesta:     46    1.599837    1.364301    0.402607
siesta:     47   -1.586389    0.205661    0.346743
siesta:     48    0.905495    0.473754    0.059414
siesta:     49   -0.613315    1.684622   -0.323396
siesta:     50   -0.060291   -0.878784   -0.228133
siesta:     51   -0.110637    0.064253    0.730159
siesta:     52   -0.156915   -0.319014   -0.085951
siesta:     53    0.069090    1.008386    0.634188
siesta:     54   -0.702775    0.564692   -0.731437
siesta:     55   -0.283765    0.463356   -0.388487
siesta:     56    0.506802    0.220361    0.025397
siesta:     57    0.160264   -0.378727   -0.381796
siesta:     58    0.800176    0.737772   -1.756190
siesta:     59    0.010659    0.103269   -0.673067
siesta:     60    0.855708    0.626368   -0.268369
siesta:     61    0.321818    0.176982    0.234353
siesta:     62   -0.213425   -0.495668   -0.354408
siesta:     63    0.362177   -0.607243    0.014983
siesta:     64    0.021056   -0.345895   -0.102257
siesta:     65    0.401016    1.015743   -0.529502
siesta:     66   -0.123951    0.715096   -0.198569
siesta:     67    0.320042    0.236365    0.106489
siesta:     68   -0.111403    0.107559   -0.479395
siesta:     69    0.272399   -0.611157   -0.989889
siesta:     70   -0.123984    0.124780   -0.348119
siesta:     71   -0.183847   -0.852007    0.776584
siesta:     72   -0.296164    0.423266   -0.506734
siesta:     73   -0.553601    0.338450    0.141161
siesta:     74   -0.041709   -0.440862    0.330025
siesta:     75   -0.190614   -0.278766    0.063716
siesta:     76   -0.110716   -0.045958    0.229637
siesta:     77   -0.333881   -0.124361    0.302710
siesta:     78   -0.144502    0.338918    0.082599
siesta:     79    0.289870   -0.052148    0.256900
siesta:     80   -0.210267   -0.872273   -0.002137
siesta:     81    0.250245    0.559056    0.078193
siesta:     82   -0.272617   -0.798579    0.243641
siesta:     83    1.046200    0.304342   -0.553251
siesta:     84   -0.107995   -0.884370   -0.090291
siesta:     85   -0.745216    0.152325   -0.179802
siesta:     86    1.475785    1.148116    0.332815
siesta:     87   -0.569549    0.679437   -0.608231
siesta:     88    0.170248   -0.296052    0.783837
siesta:     89    0.218610   -0.107204   -0.207637
siesta:     90    0.383366    0.597715    0.321730
siesta:     91   -0.530722   -0.170834    0.198941
siesta:     92   -0.245202   -0.484304    0.611305
siesta:     93   -0.365956   -0.581500   -0.863702
siesta:     94    0.516081   -0.346228    0.034165
siesta:     95   -0.810043   -0.209323   -0.353249
siesta:     96   -0.480587   -0.010093   -0.416424
siesta:     97    0.302308   -0.336453    0.391914
siesta:     98   -0.048199   -1.511701    0.546552
siesta:     99    0.398450    0.641642   -1.142510
siesta:    100   -0.049271   -0.347772    1.147479
siesta:    101    0.530366    0.408958   -0.095561
siesta:    102   -0.891892   -0.398473    0.273052
siesta:    103    0.172386   -0.662556   -0.531234
siesta:    104   -0.497758    0.162719    0.285470
siesta:    105   -0.096509    0.052183   -0.064092
siesta:    106    0.190847   -0.365199   -0.500080
siesta:    107   -0.309490    0.393476   -0.473657
siesta:    108    0.636974   -0.320308    0.301648
siesta:    109    0.365854    0.509315   -0.041855
siesta:    110   -0.139902    0.428117   -0.065080
siesta:    111   -0.382677   -1.888850    1.141808
siesta:    112   -0.598518    0.455043    0.981849
siesta:    113    0.056523   -0.234619   -0.138762
siesta:    114    0.676799   -0.174928   -0.209351
siesta:    115    0.873198   -0.042708    1.007909
siesta:    116    0.529329    0.759869    1.290951
siesta:    117   -0.776331   -0.058641   -0.546826
siesta:    118   -0.471477    0.926233    0.854686
siesta:    119    0.483952    0.173875   -0.771880
siesta:    120   -1.957107    3.192934   -3.645976
siesta:    121   -2.518000   -2.194081   -0.482174
siesta:    122    0.266140    0.709143    0.404767
siesta:    123    2.212615    0.973876   -0.005757
siesta:    124   -1.323585   -1.637205   -0.471192
siesta:    125    2.428508    1.903612    0.304356
siesta:    126    1.623494    0.154772   -1.132171
siesta:    127   -1.836181   -0.867942    1.090338
siesta:    128    0.862599    0.319049   -0.154942
siesta:    129    0.901291    0.029683   -0.163724
siesta:    130    1.309280    1.723237   -1.985764
siesta:    131   -1.015425   -1.875651    1.119292
siesta:    132    0.557903    0.776442    0.081018
siesta:    133   -0.704794   -0.121518   -0.908777
siesta:    134   -0.473682   -0.351036   -0.034387
siesta:    135    0.604981   -1.407846    0.117893
siesta:    136   -0.798274    1.584232   -1.172053
siesta:    137    0.411891   -0.058440    0.467509
siesta:    138   -0.480979    0.604931   -0.725998
siesta:    139   -0.599278   -0.548311   -0.326297
siesta:    140    0.461116    1.042041    0.129220
siesta:    141   -0.466107   -0.104094    0.323289
siesta:    142   -1.371377   -0.559886    0.102526
siesta:    143    0.082711   -0.153847   -0.249160
siesta:    144    0.312517    0.651668   -0.705076
siesta:    145   -0.210574    0.165346   -0.219372
siesta:    146   -0.136981   -0.428420    0.016886
siesta:    147   -0.649527    0.347849   -0.953886
siesta:    148   -0.207561   -0.472123   -0.872413
siesta:    149    0.878614   -1.292809    0.257591
siesta:    150    0.067939    0.630302    0.597310
siesta:    151    2.197816   -1.473694   -0.099273
siesta:    152   -0.192047   -0.107566   -0.050826
siesta:    153   -1.101736   -0.073456    0.413136
siesta:    154    0.295393    0.394116   -0.069576
siesta:    155   -0.348919    0.285951    0.234488
siesta:    156    0.022694   -0.188591   -0.018715
siesta:    157   -0.851947   -0.036003    0.779592
siesta:    158   -0.464580   -0.400268    0.780299
siesta:    159   -0.104791    0.473378    0.951855
siesta:    160    0.005428   -1.628967    0.139481
siesta:    161    1.434102    0.553274   -1.028645
siesta:    162   -0.174881    1.007250   -0.144859
siesta:    163   -1.159341   -0.176249   -0.496717
siesta:    164   -0.309443    0.130904    0.360583
siesta:    165    0.087011    0.326358   -0.008250
siesta:    166   -0.088749    0.086505    0.168009
siesta:    167    0.202134    0.030457    0.513304
siesta:    168   -0.180503   -0.287780    0.245296
siesta:    169    0.441315    0.438534   -0.040620
siesta:    170    0.213319   -0.178142   -0.081118
siesta:    171    0.011732   -0.567988    0.297480
siesta:    172    0.261840    0.230163   -0.143011
siesta:    173   -0.078089    0.075330    0.359865
siesta:    174    1.051831   -0.187295   -0.595736
siesta:    175    0.193465   -0.271163    0.519380
siesta:    176   -0.374789   -0.087623    0.229041
siesta:    177    1.648790    1.790523    0.247535
siesta:    178   -1.149519   -0.245522    0.282342
siesta:    179   -0.705680   -0.542602    0.009266
siesta:    180   -0.120778    0.601164   -0.467104
siesta:    181    1.168739   -0.554206    0.408267
siesta:    182   -2.003873    0.981395    0.206083
siesta:    183    1.953415    0.164276   -0.286373
siesta:    184   -2.280074   -0.987704    0.114148
siesta:    185    1.156238   -0.111376   -0.560246
siesta:    186    1.116527   -0.032000   -0.013767
siesta:    187    0.091592   -0.686667   -0.343496
siesta:    188    1.120087   -0.808731    0.264904
siesta:    189   -0.110214    0.567787    0.048465
siesta:    190   -1.387895   -0.322086   -0.029421
siesta:    191   -0.479535    0.817968    1.413902
siesta:    192    2.065844    1.221739    0.418297
siesta:    193    0.095727   -0.052133   -0.280234
siesta:    194   -0.548111   -0.306135   -0.458108
siesta:    195   -0.141297   -0.950812    0.197534
siesta:    196    0.592528   -0.302068    0.004744
siesta:    197    0.467179   -0.452987   -0.311283
siesta:    198   -0.345144    0.178112    0.098646
siesta:    199   -0.342729   -0.199713    0.224403
siesta:    200   -1.055167    0.620357    0.139836
siesta:    201   -0.309157    0.488866   -0.051339
siesta:    202    0.302379    0.456392   -0.299103
siesta:    203   -0.171516   -0.658751   -0.089683
siesta:    204   -0.098047   -0.371719   -0.909294
siesta: ----------------------------------------
siesta:    Tot   -0.508343    1.570615   -2.592896

siesta: Stress tensor (static) (eV/Ang**3):
siesta:     0.000473    0.000155   -0.000145
siesta:     0.000155   -0.000023   -0.000115
siesta:    -0.000145   -0.000115    0.000253

siesta: Cell volume =      34369.101309 Ang**3

siesta: Pressure (static):
siesta:                Solid            Molecule  Units
siesta:          -0.00000255          0.00000098  Ry/Bohr**3
siesta:          -0.00023432          0.00009031  eV/Ang**3
siesta:          -0.37542806          0.14469553  kBar
(Free)E+ p_basis*V_orbitals  =      -18582.298452
(Free)Eharris+ p_basis*V_orbitals  =      -18582.298452
     spin moment: S , {S} =   -0.00000       0.0       0.0  -0.00000

siesta: Electric dipole (a.u.)  =   -7.240377   -1.940163    1.296801
siesta: Electric dipole (Debye) =  -18.403215   -4.931406    3.296143

cite: Please see "siesta.bib" for an exhaustive BiBTeX file.
cite: This calculation has made use of the following articles.
cite: Articles are encouraged to be cited in a published work.
        Primary SIESTA paper
          DOI: www.doi.org/10.1088/0953-8984/14/11/302


timer: Elapsed wall time (sec) =    3664.670
timer: CPU execution times (sec):

Routine            Calls   Time/call    Tot.time        %
siesta                 1    3664.019    3664.019   100.00
Setup                  1       0.392       0.392     0.01
bands                  3     194.876     584.628    15.96
KSV_init               1       0.000       0.000     0.00
IterGeom              10     219.689    2196.886    59.96
state_init            10       0.462       4.624     0.13
hsparse               10       0.055       0.554     0.02
overlap               10       0.318       3.182     0.09
Setup_H0              10       8.564      85.639     2.34
naefs                 20       0.002       0.045     0.00
MolMec                20       0.000       0.000     0.00
kinefsm               20       0.236       4.729     0.13
nlefsm                20       1.514      30.287     0.83
DHSCF_Init            10       6.086      60.859     1.66
DHSCF1                10       0.039       0.388     0.01
INITMESH              10       0.000       0.000     0.00
DHSCF2                10       6.047      60.469     1.65
REMESH                10       0.591       5.907     0.16
REORD                666       0.020      13.511     0.37
PHION                 10       3.669      36.694     1.00
COMM_BSC            1014       0.017      16.937     0.46
POISON               132       1.080     142.600     3.89
fft                  264       0.438     115.566     3.15
IterSCF              101      19.509    1970.408    53.78
setup_H              111       5.032     558.601    15.25
DHSCF                122       5.607     684.084    18.67
DHSCF3               122       5.022     612.630    16.72
rhoofd               122       1.343     163.859     4.47
XC                   122       0.866     105.627     2.88
GXC-CellXC           122       0.677      82.629     2.26
cellXC               122       0.677      82.626     2.26
vmat                 121       1.116     135.018     3.68
compute_dm           101      13.949    1408.805    38.45
diagon               101      13.944    1408.320    38.44
r-eigvec             202       6.308    1274.222    34.78
r-buildHS            202       0.005       1.044     0.03
rdiag                204       6.293    1283.694    35.04
rdiag1               204       0.229      46.677     1.27
rdiag2               204       0.462      94.191     2.57
rdiag3               204       3.682     751.187    20.50
rdiag4               204       1.912     390.105    10.65
r-buildD             101       1.302     131.494     3.59
MIXER                 91       0.016       1.448     0.04
PostSCF               10      13.604     136.044     3.71
DHSCF4                10       7.145      71.453     1.95
dfscf                 10       6.196      61.962     1.69
overfsm               10       0.154       1.538     0.04
state_analysis        10       0.009       0.089     0.00
siesta_move           10       0.006       0.055     0.00
Analysis               1    1466.731    1466.731    40.03
c-eigval             152       3.845     584.396    15.95
c-buildHS            152       0.016       2.458     0.07
cdiag                152       3.829     581.937    15.88
cdiag1               152       0.623      94.703     2.58
cdiag2               152       1.271     193.200     5.27
cdiag3               152       1.934     294.029     8.02
pdos                   1     878.287     878.287    23.97
optical                1       0.000       0.000     0.00
  

>> End of run:  15-DEC-2020  16:40:29
Job completed
