Siesta Version  : master-post-4.1-266
Architecture    : unknown
Compiler version: GNU Fortran (Ubuntu 9.3.0-17ubuntu1~20.04) 9.3.0
Compiler flags  : gfortran -O2 -fPIC -ftree-vectorize
PP flags        : -DFC_HAVE_ABORT -DSIESTA__DIAG_2STAGE -DSIESTA__MRRR
Libraries       : libsiestaLAPACK.a libsiestaBLAS.a
Directory       : /home/colinw/siesta/mixture_simulations/asphaltene1peptidederivative
SERIAL version

* Running in serial mode
>> Start of run:  15-DEC-2020  11:41:45

                           ***********************       
                           *  WELCOME TO SIESTA  *       
                           ***********************       

reinit: Reading from standard input
reinit: Dumped input in INPUT_TMP.73781
************************** Dump of input data file ****************************
NumberOfAtoms 186
SpinPolarized yes
#FixSpin .true.
#TotalSpin
NumberOfSpecies 4
MD.TypeOfRun  nose
MD.FinalTimeStep 10
MD.LengthTimeStep 1.0  fs
MD.InitialTemperature 300 K
MD.TargetTemperature  300  K
%block ChemicalSpeciesLabel
1  6  C
2  7  N
3  1  H
4  8  O
%endblock ChemicalSpeciesLabel
PAO.BasisSize szp
 PAO.EnergyShift 0.02 Ry
MeshCutoff          100 Ry
MaxSCFIterations    100
DM.NumberPulay       3
DM.Tolerance         1e-3
WriteDenchar	.true.
%block ProjectedDensityOfStates
-10.0 10.0 0.200 500 eV
%endblock ProjectedDensityOfStates
NetCharge 0.00
%block BandLines
1  1.000  1.000 1.000  L
20 0.00   0.00   0.00  \Gamma
25 2.00   0.000  0.00  X
30 2.00   2.00   2.00  \Gamma
%endblock BandLines
LongOutput .true.
WriteCoorXmol .true.
LatticeConstant 1 Ang
%block LatticeVectors
  37.755152 0.0 0.0
  0.0 25.458964 0.0
  0.0 0.0 36.739641
%endblock LatticeVectors
#UseSaveData .true.
%block kgrid_Monkhorst_Pack
1 0 0 0.0
 0 1 0 0.0
 0 0 1 0.0
%endblock kgrid_Monkhorst_Pack
WriteMDXmol .true.
AtomicCoordinatesFormat Ang
%block AtomicCoordinatesAndAtomicSpecies
3.899935  19.882770 21.001141  1
3.326080  20.105415 22.384531  1
3.434657  21.598650 22.758451  1
2.504721  22.297304 21.717403  1
3.148464  22.257745 20.311884  1
3.899565  20.955744 20.019525  1
4.712491  20.912379 18.848167  1
5.553916  19.809698 18.724718  1
5.388040  18.772310 19.678290  1
4.578464  18.678779 20.790870  1
6.184024  17.685555 19.414077  1
6.127383  16.505326 20.089107  1
5.368669  16.411412 21.266787  1
4.603087  17.542082 21.572830  2
6.523343  19.731286 17.609556  1
7.331992  18.549538 17.431241  1
7.090808  17.607615 18.359138  1
4.770121  21.866078 17.904864  2
5.639942  21.724299 16.840257  1
6.567806  20.666090 16.606027  1
7.410348  20.390212 15.392304  1
7.958586  19.063535 15.201863  1
7.935815  18.139161 16.226865  1
8.110593  16.720052 16.049049  1
8.071616  15.787281 17.094308  1
7.457926  16.285529 18.225820  1
7.652607  21.246774 14.312188  1
8.222452  20.870780 13.122044  2
8.541852  19.563781 12.940240  1
8.377453  18.617837 13.932108  1
8.601390  17.139736 13.658947  1
7.874039  16.211478 14.633024  1
4.931044  22.074747 22.797382  1
5.810622  21.313544 23.816205  1
7.293627  21.716214 23.801595  1
7.968071  21.466943 22.459070  1
1.977119  23.695063 22.090592  1
1.121565  23.705059 23.357731  1
5.255436  15.222583 22.200631  1
6.535190  14.382355 22.461235  1
6.300134  13.260030 23.454476  1
7.121902  13.704364 21.242086  1
6.338554  15.978253 14.313951  1
5.332439  17.150991 14.228900  1
4.989553  17.826143 15.528207  1
9.195756  19.236494 11.619519  1
8.202448  18.846548 10.514420  1
8.898863  18.506224 9.174655  1
9.848507  17.313418 9.329532  1
7.901228  18.246504 8.016614  1
7.016696  17.007076 8.196413  1
6.077409  16.777583 7.021172  1
6.874420  15.665580 19.287319  2
7.383868  22.723776 14.378541  1
3.860819  19.510661 23.130725  3
2.285316  19.762712 22.410025  3
3.024784  21.721373 23.765429  3
1.592820  21.683979 21.642674  3
3.853257  23.094173 20.218946  3
2.369400  22.397496 19.551733  3
5.497534  22.517813 16.118481  3
8.214402  14.722549 16.951666  3
8.276128  16.867510 12.649388  3
9.680039  16.945894 13.719712  3
8.339534  15.214018 14.540140  3
4.981772  23.147845 23.009767  3
5.392217  21.949165 21.815058  3
5.774067  20.234675 23.629941  3
5.413632  21.475443 24.824569  3
7.823819  21.132072 24.566221  3
7.402919  22.769616 24.080618  3
7.847265  20.424305 22.147060  3
9.039678  21.682061 22.519724  3
7.550946  22.111679 21.680946  3
1.336064  24.053781 21.272621  3
2.795923  24.413182 22.189541  3
0.215130  23.102481 23.226793  3
0.804992  24.726525 23.593987  3
1.662363  23.322203 24.226325  3
4.431612  14.588698 21.852089  3
4.937097  15.620715 23.177141  3
7.303915  15.057389 22.857106  3
5.513948  12.586809 23.096742  3
6.034752  13.652454 24.435047  3
7.219637  12.669626 23.559154  3
6.332842  13.348987 20.562999  3
7.807891  12.874830 21.417817  3
7.804166  14.437690 20.824884  3
5.934554  15.244612 15.025890  3
6.289929  15.490492 13.330488  3
4.377466  16.791396 13.841606  3
5.707170  17.899628 13.522603  3
4.904764  17.169997 16.396853  3
4.196226  18.574192 15.495926  3
5.808713  18.465771 15.678504  3
9.937092  18.445960 11.785425  3
9.770964  20.116764 11.314658  3
7.495405  19.671668 10.363883  3
7.605264  17.988685 10.842602  3
9.501352  19.377240 8.881061  3
9.353490  16.480694 9.840419  3
10.734259  17.584880 9.910881  3
10.198439  16.958124 8.354973  3
8.479467  18.125867 7.089585  3
7.274181  19.134337 7.868944  3
6.423789  17.094055 9.111955  3
7.641505  16.113073 8.291838  3
5.374413  17.606614 6.895254  3
5.497173  15.863426 7.188068  3
6.638871  16.650824 6.090229  3
6.913688  14.666318 19.314279  3
8.012693  23.252449 13.661764  3
7.638238  23.114149 15.370037  3
6.337911  22.934417 14.139851  3
2.345788  24.975880 29.344393  1
2.562248  25.864264 28.107201  1
1.231180  26.005582 27.361688  1
3.127294  27.235967 28.528775  1
4.407796  27.258406 29.247057  2
5.679402  26.903819 28.928715  1
6.578586  27.334600 29.657702  4
6.008522  26.097459 27.657096  1
7.080016  25.012064 27.953299  1
6.549370  23.991804 28.969677  1
7.529542  24.255781 26.693561  1
6.494838  27.081588 26.691278  2
5.763080  27.852183 25.832246  1
6.286701  28.861718 25.368097  4
4.287568  27.492849 25.535206  1
4.003587  27.665986 24.016172  1
4.848241  26.705481 23.172056  1
2.523507  27.452505 23.673522  1
3.491347  28.451177 26.301609  2
3.048260  28.451508 27.580691  1
2.640009  29.534106 28.019279  4
1.957737  23.993101 29.055807  3
1.625398  25.427039 30.036616  3
3.282324  24.814474 29.887643  3
3.237332  25.323300 27.448005  3
0.498629  26.564861 27.952739  3
0.805189  25.021119 27.138853  3
1.366275  26.522320 26.407815  3
2.428774  27.547798 29.324521  3
4.417325  27.885926 30.046448  3
5.130369  25.605642 27.266126  3
7.971787  25.484432 28.385305  3
5.695257  23.436438 28.566704  3
6.232620  24.476636 29.897611  3
7.328710  23.267724 29.231588  3
6.676982  23.869618 26.124523  3
8.162542  23.400429 26.961024  3
8.121325  24.897504 26.033260  3
7.384261  27.521040 26.913886  3
4.042103  26.478379 25.833512  3
4.261723  28.690062 23.713116  3
4.608835  25.661837 23.400698  3
5.918879  26.856006 23.339168  3
4.662033  26.868830 22.104501  3
2.175711  26.468514 24.004227  3
2.364323  27.517085 22.590824  3
1.891246  28.215697 24.138223  3
3.499061  29.399713 25.936589  3
29.312855  28.948469 4.278409  1
27.912055  28.585887 3.900890  1
26.942321  29.526048 4.062664  2
25.664915  29.236263 3.732808  1
25.235673  28.021377 3.225008  1
26.215753  27.034777 3.048449  1
26.196394  25.686691 2.566306  1
25.184914  24.831057 2.082667  1
25.516374  23.532000 1.679900  1
26.831826  23.080086 1.752810  1
27.852455  23.908407 2.227915  1
27.502405  25.203844 2.626441  1
28.283839  26.218026 3.125563  2
29.279085  26.147238 3.277032  3
27.532096  27.339615 3.390543  1
29.365036  29.975488 4.652687  3
29.970282  28.865781 3.407531  3
29.676434  28.277524 5.062727  3
24.958176  30.045773 3.894774  3
24.195416  27.849815 2.979286  3
24.156381  25.173851 2.021890  3
24.738063  22.870807 1.306807  3
27.069786  22.067335 1.435183  3
28.875929  23.552348 2.283501  3
 %endblock AtomicCoordinatesAndAtomicSpecies
************************** End of input data file *****************************

reinit: -----------------------------------------------------------------------
reinit: System Name: 
reinit: -----------------------------------------------------------------------
reinit: System Label: siesta
reinit: -----------------------------------------------------------------------

initatom: Reading input for the pseudopotentials and atomic orbitals ----------
Species number:   1 Atomic number:    6 Label: C
Species number:   2 Atomic number:    7 Label: N
Species number:   3 Atomic number:    1 Label: H
Species number:   4 Atomic number:    8 Label: O

Ground state valence configuration:   2s02  2p02
Reading pseudopotential information in formatted form from C.psf

Valence configuration for pseudopotential generation:
2s( 2.00) rc: 1.54
2p( 2.00) rc: 1.54
3d( 0.00) rc: 1.54
4f( 0.00) rc: 1.54
Ground state valence configuration:   2s02  2p03
Reading pseudopotential information in formatted form from N.psf

Valence configuration for pseudopotential generation:
2s( 2.00) rc: 1.48
2p( 3.00) rc: 1.48
3d( 0.00) rc: 1.48
4f( 0.00) rc: 1.48
Ground state valence configuration:   1s01
Reading pseudopotential information in formatted form from H.psf

Valence configuration for pseudopotential generation:
1s( 1.00) rc: 1.31
2p( 0.00) rc: 1.31
3d( 0.00) rc: 0.37
4f( 0.00) rc: 1.31
Ground state valence configuration:   2s02  2p04
Reading pseudopotential information in formatted form from O.psf

Valence configuration for pseudopotential generation:
2s( 2.00) rc: 1.47
2p( 4.00) rc: 1.47
3d( 0.00) rc: 1.47
4f( 0.00) rc: 1.47
For C, standard SIESTA heuristics set lmxkb to 3
 (one more than the basis l, including polarization orbitals).
Use PS.lmax or PS.KBprojectors blocks to override.
For N, standard SIESTA heuristics set lmxkb to 3
 (one more than the basis l, including polarization orbitals).
Use PS.lmax or PS.KBprojectors blocks to override.
For H, standard SIESTA heuristics set lmxkb to 2
 (one more than the basis l, including polarization orbitals).
Use PS.lmax or PS.KBprojectors blocks to override.
For O, standard SIESTA heuristics set lmxkb to 3
 (one more than the basis l, including polarization orbitals).
Use PS.lmax or PS.KBprojectors blocks to override.

<basis_specs>
===============================================================================
C                    Z=   6    Mass=  12.010        Charge= 0.17977+309
Lmxo=1 Lmxkb= 3    BasisType=split      Semic=F
L=0  Nsemic=0  Cnfigmx=2
          i=1  nzeta=1  polorb=0  (2s)
            splnorm:   0.15000    
               vcte:    0.0000    
               rinn:    0.0000    
               qcoe:    0.0000    
               qyuk:    0.0000    
               qwid:   0.10000E-01
                rcs:    0.0000    
            lambdas:    1.0000    
L=1  Nsemic=0  Cnfigmx=2
          i=1  nzeta=1  polorb=1  (2p)
            splnorm:   0.15000    
               vcte:    0.0000    
               rinn:    0.0000    
               qcoe:    0.0000    
               qyuk:    0.0000    
               qwid:   0.10000E-01
                rcs:    0.0000    
            lambdas:    1.0000    
-------------------------------------------------------------------------------
L=0  Nkbl=1  erefs: 0.17977+309
L=1  Nkbl=1  erefs: 0.17977+309
L=2  Nkbl=1  erefs: 0.17977+309
L=3  Nkbl=1  erefs: 0.17977+309
===============================================================================
</basis_specs>

atom: Called for C                     (Z =   6)

read_vps: Pseudopotential generation method:
read_vps: ATM3      Troullier-Martins                       
Valence charge for ps generation:    4.00000

read_vps: Pseudopotential includes a core correction:
read_vps: Pseudo-core for xc-correction

xc_check: Exchange-correlation functional:
xc_check: Ceperley-Alder
xc_check: WARNING: Pseudopotential generated with GGA PBE functional
V l=0 = -2*Zval/r beyond r=  1.5227
V l=1 = -2*Zval/r beyond r=  1.5227
V l=2 = -2*Zval/r beyond r=  1.5227
V l=3 = -2*Zval/r beyond r=  1.5038
All V_l potentials equal beyond r=  1.5227
This should be close to max(r_c) in ps generation
All pots = -2*Zval/r beyond r=  1.5227

VLOCAL1: 99.0% of the norm of Vloc inside     18.722 Ry
VLOCAL1: 99.9% of the norm of Vloc inside     42.668 Ry
atom: Maximum radius for 4*pi*r*r*local-pseudopot. charge    1.83678
atom: Maximum radius for r*vlocal+2*Zval:    1.58088

KBgen: Kleinman-Bylander projectors: 
GHOST: No ghost state for L =  0
   l= 0   rc=  1.704034   el= -0.998584   Ekb=  5.327875   kbcos=  0.314897
GHOST: No ghost state for L =  1
   l= 1   rc=  1.704034   el= -0.383998   Ekb= -3.785479   kbcos= -0.363289
GHOST: No ghost state for L =  2
   l= 2   rc=  1.791422   el=  0.002326   Ekb= -0.971263   kbcos= -0.009325
GHOST: No ghost state for L =  3
   l= 3   rc=  1.859892   el=  0.003420   Ekb= -0.399672   kbcos= -0.001232

KBgen: Total number of  Kleinman-Bylander projectors:   16
atom: -------------------------------------------------------------------------

atom: SANKEY-TYPE ORBITALS:

SPLIT: Orbitals with angular momentum L= 0

SPLIT: Basis orbitals for state 2s

SPLIT: PAO cut-off radius determined from an
SPLIT: energy shift=  0.020000 Ry

   izeta = 1
                 lambda =    1.000000
                     rc =    4.191849
                 energy =   -0.980459
                kinetic =    0.881507
    potential(screened) =   -1.861966
       potential(ionic) =   -5.449625

SPLIT: Orbitals with angular momentum L= 1

SPLIT: Basis orbitals for state 2p

SPLIT: PAO cut-off radius determined from an
SPLIT: energy shift=  0.020000 Ry

   izeta = 1
                 lambda =    1.000000
                     rc =    4.993604
                 energy =   -0.366127
                kinetic =    2.463190
    potential(screened) =   -2.829316
       potential(ionic) =   -6.291180

POLgen: Perturbative polarization orbital with L=  2

POLgen: Polarization orbital for state 2p

   izeta = 1
                     rc =    4.993604
                 energy =    1.232619
                kinetic =    2.527283
    potential(screened) =   -1.294664
       potential(ionic) =   -4.203101
atom: Total number of Sankey-type orbitals:  9

atm_pop: Valence configuration (for local Pseudopot. screening):
 2s( 2.00)                                                            
 2p( 2.00)                                                            
Vna: chval, zval:    4.00000   4.00000

Vna:  Cut-off radius for the neutral-atom potential:   4.993604
comcore: Pseudo-core radius Rcore=  1.791422

atom: _________________________________________________________________________

<basis_specs>
===============================================================================
N                    Z=   7    Mass=  14.010        Charge= 0.17977+309
Lmxo=1 Lmxkb= 3    BasisType=split      Semic=F
L=0  Nsemic=0  Cnfigmx=2
          i=1  nzeta=1  polorb=0  (2s)
            splnorm:   0.15000    
               vcte:    0.0000    
               rinn:    0.0000    
               qcoe:    0.0000    
               qyuk:    0.0000    
               qwid:   0.10000E-01
                rcs:    0.0000    
            lambdas:    1.0000    
L=1  Nsemic=0  Cnfigmx=2
          i=1  nzeta=1  polorb=1  (2p)
            splnorm:   0.15000    
               vcte:    0.0000    
               rinn:    0.0000    
               qcoe:    0.0000    
               qyuk:    0.0000    
               qwid:   0.10000E-01
                rcs:    0.0000    
            lambdas:    1.0000    
-------------------------------------------------------------------------------
L=0  Nkbl=1  erefs: 0.17977+309
L=1  Nkbl=1  erefs: 0.17977+309
L=2  Nkbl=1  erefs: 0.17977+309
L=3  Nkbl=1  erefs: 0.17977+309
===============================================================================
</basis_specs>

atom: Called for N                     (Z =   7)

read_vps: Pseudopotential generation method:
read_vps: ATM3      Troullier-Martins                       
Valence charge for ps generation:    5.00000

read_vps: Pseudopotential includes a core correction:
read_vps: Pseudo-core for xc-correction

xc_check: Exchange-correlation functional:
xc_check: Ceperley-Alder
xc_check: WARNING: Pseudopotential generated with GGA PBE functional
V l=0 = -2*Zval/r beyond r=  1.4606
V l=1 = -2*Zval/r beyond r=  1.4606
V l=2 = -2*Zval/r beyond r=  1.4606
V l=3 = -2*Zval/r beyond r=  1.4606
All V_l potentials equal beyond r=  1.4606
This should be close to max(r_c) in ps generation
All pots = -2*Zval/r beyond r=  1.4606

VLOCAL1: 99.0% of the norm of Vloc inside     20.347 Ry
VLOCAL1: 99.9% of the norm of Vloc inside     46.372 Ry
atom: Maximum radius for 4*pi*r*r*local-pseudopot. charge    1.76189
atom: Maximum radius for r*vlocal+2*Zval:    1.53550

KBgen: Kleinman-Bylander projectors: 
GHOST: No ghost state for L =  0
   l= 0   rc=  1.634559   el= -1.348537   Ekb=  5.297520   kbcos=  0.333054
GHOST: No ghost state for L =  1
   l= 1   rc=  1.614250   el= -0.512415   Ekb= -5.262296   kbcos= -0.428933
GHOST: No ghost state for L =  2
   l= 2   rc=  1.718383   el=  0.002346   Ekb= -1.271998   kbcos= -0.007619
GHOST: No ghost state for L =  3
   l= 3   rc=  1.761893   el=  0.003449   Ekb= -0.494630   kbcos= -0.001017

KBgen: Total number of  Kleinman-Bylander projectors:   16
atom: -------------------------------------------------------------------------

atom: SANKEY-TYPE ORBITALS:

SPLIT: Orbitals with angular momentum L= 0

SPLIT: Basis orbitals for state 2s

SPLIT: PAO cut-off radius determined from an
SPLIT: energy shift=  0.020000 Ry

   izeta = 1
                 lambda =    1.000000
                     rc =    3.683980
                 energy =   -1.330014
                kinetic =    1.203086
    potential(screened) =   -2.533100
       potential(ionic) =   -8.093205

SPLIT: Orbitals with angular momentum L= 1

SPLIT: Basis orbitals for state 2p

SPLIT: PAO cut-off radius determined from an
SPLIT: energy shift=  0.020000 Ry

   izeta = 1
                 lambda =    1.000000
                     rc =    4.388595
                 energy =   -0.493943
                kinetic =    3.501321
    potential(screened) =   -3.995264
       potential(ionic) =   -9.374806

POLgen: Perturbative polarization orbital with L=  2

POLgen: Polarization orbital for state 2p

   izeta = 1
                     rc =    4.388595
                 energy =    1.759924
                kinetic =    3.542120
    potential(screened) =   -1.782196
       potential(ionic) =   -6.226799
atom: Total number of Sankey-type orbitals:  9

atm_pop: Valence configuration (for local Pseudopot. screening):
 2s( 2.00)                                                            
 2p( 3.00)                                                            
Vna: chval, zval:    5.00000   5.00000

Vna:  Cut-off radius for the neutral-atom potential:   4.388595
comcore: Pseudo-core radius Rcore=  1.554824

atom: _________________________________________________________________________

<basis_specs>
===============================================================================
H                    Z=   1    Mass=  1.0100        Charge= 0.17977+309
Lmxo=0 Lmxkb= 2    BasisType=split      Semic=F
L=0  Nsemic=0  Cnfigmx=1
          i=1  nzeta=1  polorb=1  (1s)
            splnorm:   0.15000    
               vcte:    0.0000    
               rinn:    0.0000    
               qcoe:    0.0000    
               qyuk:    0.0000    
               qwid:   0.10000E-01
                rcs:    0.0000    
            lambdas:    1.0000    
-------------------------------------------------------------------------------
L=0  Nkbl=1  erefs: 0.17977+309
L=1  Nkbl=1  erefs: 0.17977+309
L=2  Nkbl=1  erefs: 0.17977+309
===============================================================================
</basis_specs>

atom: Called for H                     (Z =   1)

read_vps: Pseudopotential generation method:
read_vps: ATM3      Troullier-Martins                       
Valence charge for ps generation:    1.00000

xc_check: Exchange-correlation functional:
xc_check: Ceperley-Alder
xc_check: WARNING: Pseudopotential generated with GGA PBE functional
V l=0 = -2*Zval/r beyond r=  1.2977
V l=1 = -2*Zval/r beyond r=  1.2815
V l=2 = -2*Zval/r beyond r=  1.2656
All V_l potentials equal beyond r=  1.2977
This should be close to max(r_c) in ps generation
All pots = -2*Zval/r beyond r=  1.2977

VLOCAL1: 99.0% of the norm of Vloc inside     25.776 Ry
VLOCAL1: 99.9% of the norm of Vloc inside     58.745 Ry
atom: Maximum radius for 4*pi*r*r*local-pseudopot. charge    1.52711
atom: Maximum radius for r*vlocal+2*Zval:    1.28155

KBgen: Kleinman-Bylander projectors: 
GHOST: No ghost state for L =  0
   l= 0   rc=  1.434438   el= -0.456815   Ekb= -1.960338   kbcos= -0.349997
GHOST: No ghost state for L =  1
   l= 1   rc=  1.508111   el=  0.001431   Ekb= -0.423993   kbcos= -0.025386
GHOST: No ghost state for L =  2
   l= 2   rc=  1.546352   el=  0.002365   Ekb= -0.376562   kbcos= -0.002012

KBgen: Total number of  Kleinman-Bylander projectors:    9
atom: -------------------------------------------------------------------------

atom: SANKEY-TYPE ORBITALS:

SPLIT: Orbitals with angular momentum L= 0

SPLIT: Basis orbitals for state 1s

SPLIT: PAO cut-off radius determined from an
SPLIT: energy shift=  0.020000 Ry

   izeta = 1
                 lambda =    1.000000
                     rc =    4.828263
                 energy =   -0.438372
                kinetic =    0.921576
    potential(screened) =   -1.359947
       potential(ionic) =   -1.906664

POLgen: Perturbative polarization orbital with L=  1

POLgen: Polarization orbital for state 1s

   izeta = 1
                     rc =    4.828263
                 energy =    0.711580
                kinetic =    1.391494
    potential(screened) =   -0.679914
       potential(ionic) =   -1.168115
atom: Total number of Sankey-type orbitals:  4

atm_pop: Valence configuration (for local Pseudopot. screening):
 1s( 1.00)                                                            
Vna: chval, zval:    1.00000   1.00000

Vna:  Cut-off radius for the neutral-atom potential:   4.828263

atom: _________________________________________________________________________

<basis_specs>
===============================================================================
O                    Z=   8    Mass=  16.000        Charge= 0.17977+309
Lmxo=1 Lmxkb= 3    BasisType=split      Semic=F
L=0  Nsemic=0  Cnfigmx=2
          i=1  nzeta=1  polorb=0  (2s)
            splnorm:   0.15000    
               vcte:    0.0000    
               rinn:    0.0000    
               qcoe:    0.0000    
               qyuk:    0.0000    
               qwid:   0.10000E-01
                rcs:    0.0000    
            lambdas:    1.0000    
L=1  Nsemic=0  Cnfigmx=2
          i=1  nzeta=1  polorb=1  (2p)
            splnorm:   0.15000    
               vcte:    0.0000    
               rinn:    0.0000    
               qcoe:    0.0000    
               qyuk:    0.0000    
               qwid:   0.10000E-01
                rcs:    0.0000    
            lambdas:    1.0000    
-------------------------------------------------------------------------------
L=0  Nkbl=1  erefs: 0.17977+309
L=1  Nkbl=1  erefs: 0.17977+309
L=2  Nkbl=1  erefs: 0.17977+309
L=3  Nkbl=1  erefs: 0.17977+309
===============================================================================
</basis_specs>

atom: Called for O                     (Z =   8)

read_vps: Pseudopotential generation method:
read_vps: ATM3      Troullier-Martins                       
Valence charge for ps generation:    6.00000

read_vps: Pseudopotential includes a core correction:
read_vps: Pseudo-core for xc-correction

xc_check: Exchange-correlation functional:
xc_check: Ceperley-Alder
xc_check: WARNING: Pseudopotential generated with GGA PBE functional
V l=0 = -2*Zval/r beyond r=  1.4482
V l=1 = -2*Zval/r beyond r=  1.4482
V l=2 = -2*Zval/r beyond r=  1.4482
V l=3 = -2*Zval/r beyond r=  1.4482
All V_l potentials equal beyond r=  1.4482
This should be close to max(r_c) in ps generation
All pots = -2*Zval/r beyond r=  1.4482

VLOCAL1: 99.0% of the norm of Vloc inside     20.696 Ry
VLOCAL1: 99.9% of the norm of Vloc inside     47.167 Ry
atom: Maximum radius for 4*pi*r*r*local-pseudopot. charge    1.74697
atom: Maximum radius for r*vlocal+2*Zval:    1.52250

KBgen: Kleinman-Bylander projectors: 
GHOST: No ghost state for L =  0
   l= 0   rc=  1.620715   el= -1.738829   Ekb=  4.895054   kbcos=  0.290645
GHOST: No ghost state for L =  1
   l= 1   rc=  1.600578   el= -0.650915   Ekb= -6.916539   kbcos= -0.494696
GHOST: No ghost state for L =  2
   l= 2   rc=  1.703827   el=  0.002386   Ekb= -1.538961   kbcos= -0.006789
GHOST: No ghost state for L =  3
   l= 3   rc=  1.746967   el=  0.003508   Ekb= -0.568530   kbcos= -0.000966

KBgen: Total number of  Kleinman-Bylander projectors:   16
atom: -------------------------------------------------------------------------

atom: SANKEY-TYPE ORBITALS:

SPLIT: Orbitals with angular momentum L= 0

SPLIT: Basis orbitals for state 2s

SPLIT: PAO cut-off radius determined from an
SPLIT: energy shift=  0.020000 Ry

   izeta = 1
                 lambda =    1.000000
                     rc =    3.305093
                 energy =   -1.720120
                kinetic =    1.583509
    potential(screened) =   -3.303629
       potential(ionic) =  -11.248859

SPLIT: Orbitals with angular momentum L= 1

SPLIT: Basis orbitals for state 2p

SPLIT: PAO cut-off radius determined from an
SPLIT: energy shift=  0.020000 Ry

   izeta = 1
                 lambda =    1.000000
                     rc =    3.937239
                 energy =   -0.631844
                kinetic =    4.616405
    potential(screened) =   -5.248250
       potential(ionic) =  -12.927368

POLgen: Perturbative polarization orbital with L=  2

POLgen: Polarization orbital for state 2p

   izeta = 1
                     rc =    3.937239
                 energy =    2.368129
                kinetic =    4.725445
    potential(screened) =   -2.357315
       potential(ionic) =   -8.649185
atom: Total number of Sankey-type orbitals:  9

atm_pop: Valence configuration (for local Pseudopot. screening):
 2s( 2.00)                                                            
 2p( 4.00)                                                            
Vna: chval, zval:    6.00000   6.00000

Vna:  Cut-off radius for the neutral-atom potential:   3.937239
comcore: Pseudo-core radius Rcore=  1.377587

atom: _________________________________________________________________________

prinput: Basis input ----------------------------------------------------------

PAO.BasisType split     

%block ChemicalSpeciesLabel
    1    6 C                       # Species index, atomic number, species label
    2    7 N                       # Species index, atomic number, species label
    3    1 H                       # Species index, atomic number, species label
    4    8 O                       # Species index, atomic number, species label
%endblock ChemicalSpeciesLabel

%block PAO.Basis                 # Define Basis set
C                     2                    # Species label, number of l-shells
 n=2   0   1                         # n, l, Nzeta 
   4.192   
   1.000   
 n=2   1   1 P   1                   # n, l, Nzeta, Polarization, NzetaPol
   4.994   
   1.000   
N                     2                    # Species label, number of l-shells
 n=2   0   1                         # n, l, Nzeta 
   3.684   
   1.000   
 n=2   1   1 P   1                   # n, l, Nzeta, Polarization, NzetaPol
   4.389   
   1.000   
H                     1                    # Species label, number of l-shells
 n=1   0   1 P   1                   # n, l, Nzeta, Polarization, NzetaPol
   4.828   
   1.000   
O                     2                    # Species label, number of l-shells
 n=2   0   1                         # n, l, Nzeta 
   3.305   
   1.000   
 n=2   1   1 P   1                   # n, l, Nzeta, Polarization, NzetaPol
   3.937   
   1.000   
%endblock PAO.Basis

prinput: ----------------------------------------------------------------------

coor:   Atomic-coordinates input format  =     Cartesian coordinates
coor:                                          (in Angstroms)

siesta: Atomic coordinates (Bohr) and species
siesta:      7.36981  37.57300  39.68642  1        1
siesta:      6.28538  37.99374  42.30065  1        2
siesta:      6.49056  40.81555  43.00726  1        3
siesta:      4.73324  42.13581  41.03996  1        4
siesta:      5.94974  42.06106  38.38391  1        5
siesta:      7.36911  39.60063  37.83143  1        6
siesta:      8.90532  39.51868  35.61789  1        7
siesta:     10.49538  37.43492  35.38460  1        8
siesta:     10.18192  35.47454  37.18659  1        9
siesta:      8.65205  35.29779  39.28907  1       10
siesta:     11.68612  33.42087  36.68730  1       11
siesta:     11.57908  31.19056  37.96293  1       12
siesta:     10.14532  31.01309  40.18842  1       13
siesta:      8.69858  33.14974  40.76676  2       14
siesta:     12.32734  37.28674  33.27725  1       15
siesta:     13.85546  35.05356  32.94028  1       16
siesta:     13.39969  33.27358  34.69376  1       17
siesta:      9.01423  41.32092  33.83530  2       18
siesta:     10.65795  41.05299  31.82349  1       19
siesta:     12.41136  39.05327  31.38086  1       20
siesta:     14.00353  38.53193  29.08725  1       21
siesta:     15.03955  36.02487  28.72737  1       22
siesta:     14.99652  34.27806  30.66434  1       23
siesta:     15.32681  31.59633  30.32832  1       24
siesta:     15.25315  29.83365  32.30357  1       25
siesta:     14.09344  30.77520  34.44182  1       26
siesta:     14.46134  40.15060  27.04613  1       27
siesta:     15.53819  39.44007  24.79708  2       28
siesta:     16.14177  36.97020  24.45352  1       29
siesta:     15.83110  35.18263  26.32788  1       30
siesta:     16.25428  32.38942  25.81168  1       31
siesta:     14.87978  30.63527  27.65242  1       32
siesta:      9.31833  41.71524  43.08083  1       33
siesta:     10.98049  40.27678  45.00612  1       34
siesta:     13.78296  41.03771  44.97851  1       35
siesta:     15.05748  40.56666  42.44151  1       36
siesta:      3.73621  44.77720  41.74519  1       37
siesta:      2.11945  44.79609  44.13973  1       38
siesta:      9.93134  28.76652  41.95313  1       39
siesta:     12.34972  27.17872  42.44560  1       40
siesta:     11.90553  25.05784  44.32255  1       41
siesta:     13.45845  25.89750  40.14174  1       42
siesta:     11.97814  30.19453  27.04946  1       43
siesta:     10.07685  32.41069  26.88873  1       44
siesta:      9.42889  33.68654  29.34407  1       45
siesta:     17.37747  36.35172  21.95772  1       46
siesta:     15.50039  35.61483  19.86938  1       47
siesta:     16.81642  34.97171  17.33759  1       48
siesta:     18.61099  32.71763  17.63027  1       49
siesta:     14.93116  34.48091  15.14921  1       50
siesta:     13.25964  32.13873  15.48898  1       51
siesta:     11.48464  31.70505  13.26810  1       52
siesta:     12.99078  29.60367  36.44777  2       53
siesta:     13.95349  42.94173  27.17152  1       54
siesta:      7.29589  36.86982  43.71075  3       55
siesta:      4.31862  37.34613  42.34883  3       56
siesta:      5.71602  41.04746  44.91017  3       57
siesta:      3.00999  40.97680  40.89874  3       58
siesta:      7.28160  43.64168  38.20829  3       59
siesta:      4.47752  42.32515  36.94744  3       60
siesta:     10.38884  42.55252  30.45953  3       61
siesta:     15.52298  27.82160  32.03402  3       62
siesta:     15.63962  31.87499  23.90389  3       63
siesta:     18.29263  32.02311  25.92651  3       64
siesta:     15.75944  28.75034  27.47689  3       65
siesta:      9.41419  43.74310  43.48218  3       66
siesta:     10.18982  41.47793  41.22450  3       67
siesta:     10.91141  38.23801  44.65413  3       68
siesta:     10.23029  40.58272  46.91166  3       69
siesta:     14.78488  39.93384  46.42345  3       70
siesta:     13.98950  43.02836  45.50579  3       71
siesta:     14.82919  38.59636  41.85189  3       72
siesta:     17.08252  40.97317  42.55613  3       73
siesta:     14.26923  41.78503  40.97107  3       74
siesta:      2.52480  45.45508  40.19944  3       75
siesta:      5.28353  46.13425  41.93217  3       76
siesta:      0.40654  43.65738  43.89230  3       77
siesta:      1.52122  46.72638  44.58619  3       78
siesta:      3.14141  44.07259  45.78114  3       79
siesta:      8.37454  27.56865  41.29448  3       80
siesta:      9.32976  29.51888  43.79847  3       81
siesta:     13.80240  28.45435  43.19369  3       82
siesta:     10.41986  23.78563  43.64653  3       83
siesta:     11.40403  25.79941  46.17557  3       84
siesta:     13.64314  23.94213  44.52037  3       85
siesta:     11.96734  25.22594  38.85845  3       86
siesta:     14.75478  24.32991  40.47382  3       87
siesta:     14.74774  27.28329  39.35334  3       88
siesta:     11.21469  28.80815  28.39483  3       89
siesta:     11.88625  29.27280  25.19098  3       90
siesta:      8.27222  31.73115  26.15685  3       91
siesta:     10.78499  33.82541  25.55403  3       92
siesta:      9.26866  32.44660  30.98557  3       93
siesta:      7.92972  35.10015  29.28307  3       94
siesta:     10.97688  34.89526  29.62809  3       95
siesta:     18.77839  34.85783  22.27123  3       96
siesta:     18.46445  38.01519  21.38161  3       97
siesta:     14.16427  37.17408  19.58491  3       98
siesta:     14.37187  33.99370  20.48956  3       99
siesta:     17.95496  36.61769  16.78278  3      100
siesta:     17.67554  31.14401  18.59570  3      101
siesta:     20.28482  33.23062  18.72886  3      102
siesta:     19.27226  32.04622  15.78862  3      103
siesta:     16.02388  34.25294  13.39738  3      104
siesta:     13.74622  36.15867  14.87015  3      105
siesta:     12.13921  32.30310  17.21911  3      106
siesta:     14.44036  30.44931  15.66931  3      107
siesta:     10.15617  33.27169  13.03015  3      108
siesta:     10.38816  29.97754  13.58349  3      109
siesta:     12.54565  31.46551  11.50887  3      110
siesta:     13.06498  27.71534  36.49871  3      111
siesta:     15.14180  43.94078  25.81700  3      112
siesta:     14.43418  43.67943  29.04517  3      113
siesta:     11.97692  43.33978  26.72046  3      114
siesta:      4.43290  47.19759  55.45289  1      115
siesta:      4.84195  48.87639  53.11493  1      116
siesta:      2.32659  49.14345  51.70612  1      117
siesta:      5.90973  51.46854  53.91159  1      118
siesta:      8.32953  51.51094  55.26895  2      119
siesta:     10.73252  50.84087  54.66737  1      120
siesta:     12.43173  51.65493  56.04496  4      121
siesta:     11.35447  49.31707  52.26436  1      122
siesta:     13.37930  47.26597  52.82410  1      123
siesta:     12.37652  45.33796  54.74478  1      124
siesta:     14.22878  45.83680  50.44354  1      125
siesta:     12.27347  51.17680  50.43923  2      126
siesta:     10.89065  52.63302  48.81589  1      127
siesta:     11.88015  54.54076  47.93877  4      128
siesta:      8.10233  51.95398  48.25457  1      129
siesta:      7.56569  52.28116  45.38401  1      130
siesta:      9.16185  50.46607  43.78886  1      131
siesta:      4.76874  51.87774  44.73649  1      132
siesta:      6.59769  53.76495  49.70286  2      133
siesta:      5.76038  53.76558  52.11997  1      134
siesta:      4.98890  55.81139  52.94878  4      135
siesta:      3.69959  45.34041  54.90754  3      136
siesta:      3.07156  48.05016  56.76100  3      137
siesta:      6.20270  46.89258  56.47948  3      138
siesta:      6.11767  47.85412  51.86923  3      139
siesta:      0.94227  50.20033  52.82304  3      140
siesta:      1.52159  47.28308  51.28502  3      141
siesta:      2.58189  50.11994  49.90356  3      142
siesta:      4.58972  52.05781  55.41534  3      143
siesta:      8.34754  52.69678  56.77958  3      144
siesta:      9.69500  48.38767  51.52553  3      145
siesta:     15.06450  48.15862  53.64047  3      146
siesta:     10.76248  44.28847  53.98327  3      147
siesta:     11.77795  46.25416  56.49832  3      148
siesta:     13.84926  43.96964  55.23972  3      149
siesta:     12.61767  45.10706  49.36821  3      150
siesta:     15.42498  44.22042  50.94897  3      151
siesta:     15.34709  47.04948  49.19575  3      152
siesta:     13.95424  52.00725  50.85989  3      153
siesta:      7.63847  50.03690  48.81828  3      154
siesta:      8.05349  54.21638  44.81131  3      155
siesta:      8.70944  48.49386  44.22093  3      156
siesta:     11.18506  50.75052  44.10465  3      157
siesta:      8.80997  50.77475  41.77147  3      158
siesta:      4.11150  50.01826  45.36143  3      159
siesta:      4.46792  51.99978  42.69049  3      160
siesta:      3.57394  53.31996  45.61465  3      161
siesta:      6.61227  55.55743  49.01307  3      162
siesta:     55.39329  54.70470   8.08502  1      163
siesta:     52.74616  54.01952   7.37162  1      164
siesta:     50.91363  55.79617   7.67733  2      165
siesta:     48.49968  55.24855   7.05399  1      166
siesta:     47.68853  52.95275   6.09438  1      167
siesta:     49.54061  51.08834   5.76074  1      168
siesta:     49.50403  48.54083   4.84962  1      169
siesta:     47.59261  46.92392   3.93567  1      170
siesta:     48.21898  44.46905   3.17455  1      171
siesta:     50.70482  43.61506   3.31233  1      172
siesta:     52.63353  45.18036   4.21015  1      173
siesta:     51.97203  47.62838   4.96326  1      174
siesta:     53.44873  49.54491   5.90646  2      175
siesta:     55.32947  49.41114   6.19270  3      176
siesta:     52.02814  51.66441   6.40720  1      177
siesta:     55.49190  56.64549   8.79231  3      178
siesta:     56.63565  54.54844   6.43930  3      179
siesta:     56.08035  53.43680   9.56717  3      180
siesta:     47.16414  56.77830   7.36006  3      181
siesta:     45.72273  52.62854   5.63004  3      182
siesta:     45.64896  47.57170   3.82082  3      183
siesta:     46.74818  43.21958   2.46951  3      184
siesta:     51.15450  41.70124   2.71210  3      185
siesta:     54.56762  44.50751   4.31519  3      186

siesta: System type = molecule  

initatomlists: Number of atoms, orbitals, and projectors:    186  1189  2297

coxmol: Writing XMOL coordinates into file siesta.xyz                                                          

siesta: ******************** Simulation parameters ****************************
siesta:
siesta: The following are some of the parameters of the simulation.
siesta: A complete list of the parameters used, including default values,
siesta: can be found in file out.fdf
siesta:
redata: Spin configuration                          = collinear
redata: Number of spin components                   = 2
redata: Time-Reversal Symmetry                      = T
redata: Spin spiral                                 = F
redata: Long output                                 =   T
redata: Number of Atomic Species                    =        4
redata: Charge density info will appear in .RHO file
redata: Write Mulliken Pop.                         = Atomic and Orbital charges
redata: Matel table size (NRTAB)                    =     1024
redata: Mesh Cutoff                                 =   100.0000 Ry
redata: Net charge of the system                    =     0.0000 |e|
redata: Min. number of SCF Iter                     =        0
redata: Max. number of SCF Iter                     =      100
redata: SCF convergence failure will abort job
redata: SCF mix quantity                            = Hamiltonian
redata: Mix DM or H after convergence               =   F
redata: Recompute H after scf cycle                 =   F
redata: Mix DM in first SCF step                    =   T
redata: Write Pulay info on disk                    =   F
redata: New DM Occupancy tolerance                  = 0.000000000001
redata: No kicks to SCF
redata: DM Mixing Weight for Kicks                  =     0.5000
redata: Require Harris convergence for SCF          =   F
redata: Harris energy tolerance for SCF             =     0.000100 eV
redata: Require DM convergence for SCF              =   T
redata: DM tolerance for SCF                        =     0.001000
redata: Require EDM convergence for SCF             =   F
redata: EDM tolerance for SCF                       =     0.001000 eV
redata: Require H convergence for SCF               =   T
redata: Hamiltonian tolerance for SCF               =     0.001000 eV
redata: Require (free) Energy convergence for SCF   =   F
redata: (free) Energy tolerance for SCF             =     0.000100 eV
redata: Antiferro initial spin density              =   F
redata: Using Saved Data (generic)                  =   F
redata: Use continuation files for DM               =   F
redata: Neglect nonoverlap interactions             =   F
redata: Method of Calculation                       = Diagonalization
redata: Electronic Temperature                      =   299.9869 K
redata: Fix the spin of the system                  =   F
redata: Max. number of TDED Iter                    =        1
redata: Number of TDED substeps                     =        3
redata: Dynamics option                             = Nose thermostat MD run
redata: Initial MD time step                        =        1
redata:   Final MD time step                        =       10
redata: Length of MD time step                      =     1.0000 fs
redata: Initial Temperature of MD run               =   300.0000 K
redata: Perform a MD quench                         =   F
redata: Nose mass                                   =  1360.5800 eV/fs**2
redata: Target Temperature                          =   300.0000 Kelvin
mix.SCF: Pulay mixing                            = Pulay
mix.SCF:    Variant                              = stable
mix.SCF:    History steps                        = 3
mix.SCF:    Linear mixing weight                 =     0.250000
mix.SCF:    Mixing weight                        =     0.250000
mix.SCF:    SVD condition                        = 0.1000E-07
mix.SCF: Spin-component mixing                   all
redata: ***********************************************************************

%block SCF.Mixers
  Pulay
%endblock SCF.Mixers

%block SCF.Mixer.Pulay
  # Mixing method
  method pulay
  variant stable

  # Mixing options
  weight 0.2500
  weight.linear 0.2500
  history 3
%endblock SCF.Mixer.Pulay

Size of DM history Fstack: 1
Total number of electrons:   468.000000
Total ionic charge:   468.000000
 Kpoints in:            1 . Kpoints trimmed:            1

siesta: k-point coordinates (Bohr**-1) and weights:
siesta:          1  0.000000E+00  0.000000E+00  0.000000E+00   0.100000E+01

siesta: k-grid: Number of k-points =         1
siesta: k-points from Monkhorst-Pack grid
siesta: k-cutoff (effective) =    12.729 Ang
siesta: k-point supercell and displacements
siesta: k-grid:    1   0   0      0.000
siesta: k-grid:    0   1   0      0.000
siesta: k-grid:    0   0   1      0.000
 Kpoints in:            1 . Kpoints trimmed:            1

siesta: PDOS k-point coordinates (Bohr**-1) and weights:
siesta:          1  0.000000E+00  0.000000E+00  0.000000E+00   0.100000E+01

siesta: PDOS k-grid: Number of k-points =         1
siesta: PDOS k-points from Monkhorst-Pack grid
siesta: PDOS k-cutoff (effective) =     0.000 Ang
siesta: PDOS k-point supercell and displacements
siesta: k-grid:    1   0   0      0.000
siesta: k-grid:    0   1   0      0.000
siesta: k-grid:    0   0   1      0.000

diag: Algorithm                                     = D&C
diag: Used triangular part                          = Lower
diag: Absolute tolerance                            =  0.100E-15
diag: Orthogonalization factor                      =  0.100E-05
diag: Memory factor                                 =  1.0000
Using LatticeConstant from fdf file for BandLinesScale:    1.889727 Bohr
Beware any cell changes by the end of the run
Using LatticeConstant from fdf file for BandLinesScale:    1.889727 Bohr
Beware any cell changes by the end of the run


ts: **************************************************************
ts: Save H and S matrices                           =    F
ts: Save DM and EDM matrices                        =    F
ts: Only save the overlap matrix S                  =    F
ts: **************************************************************

************************ Begin: TS CHECKS AND WARNINGS ************************
************************ End: TS CHECKS AND WARNINGS **************************


                     ====================================
                        Begin MD step =      1
                     ====================================

outcoor: Atomic coordinates (Ang):                          
    3.89993500   19.88277000   21.00114100   1       1  C
    3.32608000   20.10541500   22.38453100   1       2  C
    3.43465700   21.59865000   22.75845100   1       3  C
    2.50472100   22.29730400   21.71740300   1       4  C
    3.14846400   22.25774500   20.31188400   1       5  C
    3.89956500   20.95574400   20.01952500   1       6  C
    4.71249100   20.91237900   18.84816700   1       7  C
    5.55391600   19.80969800   18.72471800   1       8  C
    5.38804000   18.77231000   19.67829000   1       9  C
    4.57846400   18.67877900   20.79087000   1      10  C
    6.18402400   17.68555500   19.41407700   1      11  C
    6.12738300   16.50532600   20.08910700   1      12  C
    5.36866900   16.41141200   21.26678700   1      13  C
    4.60308700   17.54208200   21.57283000   2      14  N
    6.52334300   19.73128600   17.60955600   1      15  C
    7.33199200   18.54953800   17.43124100   1      16  C
    7.09080800   17.60761500   18.35913800   1      17  C
    4.77012100   21.86607800   17.90486400   2      18  N
    5.63994200   21.72429900   16.84025700   1      19  C
    6.56780600   20.66609000   16.60602700   1      20  C
    7.41034800   20.39021200   15.39230400   1      21  C
    7.95858600   19.06353500   15.20186300   1      22  C
    7.93581500   18.13916100   16.22686500   1      23  C
    8.11059300   16.72005200   16.04904900   1      24  C
    8.07161600   15.78728100   17.09430800   1      25  C
    7.45792600   16.28552900   18.22582000   1      26  C
    7.65260700   21.24677400   14.31218800   1      27  C
    8.22245200   20.87078000   13.12204400   2      28  N
    8.54185200   19.56378100   12.94024000   1      29  C
    8.37745300   18.61783700   13.93210800   1      30  C
    8.60139000   17.13973600   13.65894700   1      31  C
    7.87403900   16.21147800   14.63302400   1      32  C
    4.93104400   22.07474700   22.79738200   1      33  C
    5.81062200   21.31354400   23.81620500   1      34  C
    7.29362700   21.71621400   23.80159500   1      35  C
    7.96807100   21.46694300   22.45907000   1      36  C
    1.97711900   23.69506300   22.09059200   1      37  C
    1.12156500   23.70505900   23.35773100   1      38  C
    5.25543600   15.22258300   22.20063100   1      39  C
    6.53519000   14.38235500   22.46123500   1      40  C
    6.30013400   13.26003000   23.45447600   1      41  C
    7.12190200   13.70436400   21.24208600   1      42  C
    6.33855400   15.97825300   14.31395100   1      43  C
    5.33243900   17.15099100   14.22890000   1      44  C
    4.98955300   17.82614300   15.52820700   1      45  C
    9.19575600   19.23649400   11.61951900   1      46  C
    8.20244800   18.84654800   10.51442000   1      47  C
    8.89886300   18.50622400    9.17465500   1      48  C
    9.84850700   17.31341800    9.32953200   1      49  C
    7.90122800   18.24650400    8.01661400   1      50  C
    7.01669600   17.00707600    8.19641300   1      51  C
    6.07740900   16.77758300    7.02117200   1      52  C
    6.87442000   15.66558000   19.28731900   2      53  N
    7.38386800   22.72377600   14.37854100   1      54  C
    3.86081900   19.51066100   23.13072500   3      55  H
    2.28531600   19.76271200   22.41002500   3      56  H
    3.02478400   21.72137300   23.76542900   3      57  H
    1.59282000   21.68397900   21.64267400   3      58  H
    3.85325700   23.09417300   20.21894600   3      59  H
    2.36940000   22.39749600   19.55173300   3      60  H
    5.49753400   22.51781300   16.11848100   3      61  H
    8.21440200   14.72254900   16.95166600   3      62  H
    8.27612800   16.86751000   12.64938800   3      63  H
    9.68003900   16.94589400   13.71971200   3      64  H
    8.33953400   15.21401800   14.54014000   3      65  H
    4.98177200   23.14784500   23.00976700   3      66  H
    5.39221700   21.94916500   21.81505800   3      67  H
    5.77406700   20.23467500   23.62994100   3      68  H
    5.41363200   21.47544300   24.82456900   3      69  H
    7.82381900   21.13207200   24.56622100   3      70  H
    7.40291900   22.76961600   24.08061800   3      71  H
    7.84726500   20.42430500   22.14706000   3      72  H
    9.03967800   21.68206100   22.51972400   3      73  H
    7.55094600   22.11167900   21.68094600   3      74  H
    1.33606400   24.05378100   21.27262100   3      75  H
    2.79592300   24.41318200   22.18954100   3      76  H
    0.21513000   23.10248100   23.22679300   3      77  H
    0.80499200   24.72652500   23.59398700   3      78  H
    1.66236300   23.32220300   24.22632500   3      79  H
    4.43161200   14.58869800   21.85208900   3      80  H
    4.93709700   15.62071500   23.17714100   3      81  H
    7.30391500   15.05738900   22.85710600   3      82  H
    5.51394800   12.58680900   23.09674200   3      83  H
    6.03475200   13.65245400   24.43504700   3      84  H
    7.21963700   12.66962600   23.55915400   3      85  H
    6.33284200   13.34898700   20.56299900   3      86  H
    7.80789100   12.87483000   21.41781700   3      87  H
    7.80416600   14.43769000   20.82488400   3      88  H
    5.93455400   15.24461200   15.02589000   3      89  H
    6.28992900   15.49049200   13.33048800   3      90  H
    4.37746600   16.79139600   13.84160600   3      91  H
    5.70717000   17.89962800   13.52260300   3      92  H
    4.90476400   17.16999700   16.39685300   3      93  H
    4.19622600   18.57419200   15.49592600   3      94  H
    5.80871300   18.46577100   15.67850400   3      95  H
    9.93709200   18.44596000   11.78542500   3      96  H
    9.77096400   20.11676400   11.31465800   3      97  H
    7.49540500   19.67166800   10.36388300   3      98  H
    7.60526400   17.98868500   10.84260200   3      99  H
    9.50135200   19.37724000    8.88106100   3     100  H
    9.35349000   16.48069400    9.84041900   3     101  H
   10.73425900   17.58488000    9.91088100   3     102  H
   10.19843900   16.95812400    8.35497300   3     103  H
    8.47946700   18.12586700    7.08958500   3     104  H
    7.27418100   19.13433700    7.86894400   3     105  H
    6.42378900   17.09405500    9.11195500   3     106  H
    7.64150500   16.11307300    8.29183800   3     107  H
    5.37441300   17.60661400    6.89525400   3     108  H
    5.49717300   15.86342600    7.18806800   3     109  H
    6.63887100   16.65082400    6.09022900   3     110  H
    6.91368800   14.66631800   19.31427900   3     111  H
    8.01269300   23.25244900   13.66176400   3     112  H
    7.63823800   23.11414900   15.37003700   3     113  H
    6.33791100   22.93441700   14.13985100   3     114  H
    2.34578800   24.97588000   29.34439300   1     115  C
    2.56224800   25.86426400   28.10720100   1     116  C
    1.23118000   26.00558200   27.36168800   1     117  C
    3.12729400   27.23596700   28.52877500   1     118  C
    4.40779600   27.25840600   29.24705700   2     119  N
    5.67940200   26.90381900   28.92871500   1     120  C
    6.57858600   27.33460000   29.65770200   4     121  O
    6.00852200   26.09745900   27.65709600   1     122  C
    7.08001600   25.01206400   27.95329900   1     123  C
    6.54937000   23.99180400   28.96967700   1     124  C
    7.52954200   24.25578100   26.69356100   1     125  C
    6.49483800   27.08158800   26.69127800   2     126  N
    5.76308000   27.85218300   25.83224600   1     127  C
    6.28670100   28.86171800   25.36809700   4     128  O
    4.28756800   27.49284900   25.53520600   1     129  C
    4.00358700   27.66598600   24.01617200   1     130  C
    4.84824100   26.70548100   23.17205600   1     131  C
    2.52350700   27.45250500   23.67352200   1     132  C
    3.49134700   28.45117700   26.30160900   2     133  N
    3.04826000   28.45150800   27.58069100   1     134  C
    2.64000900   29.53410600   28.01927900   4     135  O
    1.95773700   23.99310100   29.05580700   3     136  H
    1.62539800   25.42703900   30.03661600   3     137  H
    3.28232400   24.81447400   29.88764300   3     138  H
    3.23733200   25.32330000   27.44800500   3     139  H
    0.49862900   26.56486100   27.95273900   3     140  H
    0.80518900   25.02111900   27.13885300   3     141  H
    1.36627500   26.52232000   26.40781500   3     142  H
    2.42877400   27.54779800   29.32452100   3     143  H
    4.41732500   27.88592600   30.04644800   3     144  H
    5.13036900   25.60564200   27.26612600   3     145  H
    7.97178700   25.48443200   28.38530500   3     146  H
    5.69525700   23.43643800   28.56670400   3     147  H
    6.23262000   24.47663600   29.89761100   3     148  H
    7.32871000   23.26772400   29.23158800   3     149  H
    6.67698200   23.86961800   26.12452300   3     150  H
    8.16254200   23.40042900   26.96102400   3     151  H
    8.12132500   24.89750400   26.03326000   3     152  H
    7.38426100   27.52104000   26.91388600   3     153  H
    4.04210300   26.47837900   25.83351200   3     154  H
    4.26172300   28.69006200   23.71311600   3     155  H
    4.60883500   25.66183700   23.40069800   3     156  H
    5.91887900   26.85600600   23.33916800   3     157  H
    4.66203300   26.86883000   22.10450100   3     158  H
    2.17571100   26.46851400   24.00422700   3     159  H
    2.36432300   27.51708500   22.59082400   3     160  H
    1.89124600   28.21569700   24.13822300   3     161  H
    3.49906100   29.39971300   25.93658900   3     162  H
   29.31285500   28.94846900    4.27840900   1     163  C
   27.91205500   28.58588700    3.90089000   1     164  C
   26.94232100   29.52604800    4.06266400   2     165  N
   25.66491500   29.23626300    3.73280800   1     166  C
   25.23567300   28.02137700    3.22500800   1     167  C
   26.21575300   27.03477700    3.04844900   1     168  C
   26.19639400   25.68669100    2.56630600   1     169  C
   25.18491400   24.83105700    2.08266700   1     170  C
   25.51637400   23.53200000    1.67990000   1     171  C
   26.83182600   23.08008600    1.75281000   1     172  C
   27.85245500   23.90840700    2.22791500   1     173  C
   27.50240500   25.20384400    2.62644100   1     174  C
   28.28383900   26.21802600    3.12556300   2     175  N
   29.27908500   26.14723800    3.27703200   3     176  H
   27.53209600   27.33961500    3.39054300   1     177  C
   29.36503600   29.97548800    4.65268700   3     178  H
   29.97028200   28.86578100    3.40753100   3     179  H
   29.67643400   28.27752400    5.06272700   3     180  H
   24.95817600   30.04577300    3.89477400   3     181  H
   24.19541600   27.84981500    2.97928600   3     182  H
   24.15638100   25.17385100    2.02189000   3     183  H
   24.73806300   22.87080700    1.30680700   3     184  H
   27.06978600   22.06733500    1.43518300   3     185  H
   28.87592900   23.55234800    2.28350100   3     186  H

outcell: Unit cell vectors (Ang):
       37.755152    0.000000    0.000000
        0.000000   25.458964    0.000000
        0.000000    0.000000   36.739641

outcell: Cell vector modules (Ang)   :   37.755152   25.458964   36.739641
outcell: Cell angles (23,13,12) (deg):     90.0000     90.0000     90.0000
outcell: Cell volume (Ang**3)        :  35314.4021
<dSpData1D:S at geom step 1
  <sparsity:sparsity for geom step 1
    nrows_g=1189 nrows=1189 sparsity=.2084 nnzs=294649, refcount: 7>
  <dData1D:(new from dSpData1D) n=294649, refcount: 1>
refcount: 1>
new_DM -- step:     1
Initializing Density Matrix...
DM filled with atomic data:
<dSpData2D:DM initialized from atoms
  <sparsity:sparsity for geom step 1
    nrows_g=1189 nrows=1189 sparsity=.2084 nnzs=294649, refcount: 8>
  <dData2D:DM n=294649 m=2, refcount: 1>
refcount: 1>
     spin moment: S , {S} =  284.00000       0.0       0.0 284.00000
No. of atoms with KB's overlaping orbs in proc 0. Max # of overlaps:     186     166

InitMesh: MESH = 240 x 160 x 240 = 9216000
InitMesh: Mesh cutoff (required, used) =   100.000   109.159 Ry
New grid distribution [1]: sub = 2

stepf: Fermi-Dirac step function

siesta: Program's energy decomposition (eV):
siesta: Ebs     =     -5746.328083
siesta: Eions   =     27060.263326
siesta: Ena     =      5409.684594
siesta: Ekin    =     12114.175545
siesta: Enl     =     -1874.416755
siesta: Eso     =         0.000000
siesta: Edftu   =         0.000000
siesta: DEna    =      -164.805807
siesta: DUscf   =        58.830918
siesta: DUext   =         0.000000
siesta: Exc     =     -6142.258070
siesta: eta*DQ  =         0.000000
siesta: Emadel  =         0.000000
siesta: Emeta   =         0.000000
siesta: Emolmec =         0.000000
siesta: Ekinion =         0.000000
siesta: Eharris =    -17592.805581
siesta: Etot    =    -17659.052900
siesta: FreeEng =    -17659.078002

        iscf     Eharris(eV)        E_KS(eV)     FreeEng(eV)     dDmax    Ef(eV) dHmax(eV)
   scf:    1   -17592.805581   -17659.052900   -17659.078002  0.844335 -4.887830  8.748270
     spin moment: S , {S} =    6.31749       0.0       0.0   6.31749
timer: Routine,Calls,Time,% = IterSCF        1      17.674  33.53
   scf:    2   -17694.817054   -17683.002271   -17683.021956  0.352050 -4.735275  5.613339
     spin moment: S , {S} =    2.17984       0.0       0.0   2.17984
   scf:    3   -17691.781600   -17688.747061   -17688.772394  0.114360 -4.673594  3.550592
     spin moment: S , {S} =    0.38454       0.0       0.0   0.38454
   scf:    4   -17692.408976   -17690.857438   -17690.857438  0.035251 -4.666985  1.616409
     spin moment: S , {S} =    0.00000       0.0       0.0   0.00000
   scf:    5   -17691.602915   -17691.266022   -17691.266022  0.017523 -4.609556  0.826465
     spin moment: S , {S} =   -0.00000       0.0       0.0  -0.00000
   scf:    6   -17691.537423   -17691.404289   -17691.404289  0.013174 -4.683622  0.293501
     spin moment: S , {S} =   -0.00000       0.0       0.0  -0.00000
   scf:    7   -17691.472376   -17691.440323   -17691.440323  0.005995 -4.649557  0.109391
     spin moment: S , {S} =   -0.00000       0.0       0.0  -0.00000
   scf:    8   -17691.452821   -17691.446740   -17691.446740  0.002107 -4.653960  0.047815
     spin moment: S , {S} =   -0.00000       0.0       0.0  -0.00000
   scf:    9   -17691.451684   -17691.449206   -17691.449206  0.001385 -4.662081  0.030890
     spin moment: S , {S} =   -0.00000       0.0       0.0  -0.00000
   scf:   10   -17691.451507   -17691.450329   -17691.450329  0.001078 -4.665433  0.014296
     spin moment: S , {S} =    0.00000       0.0       0.0   0.00000
   scf:   11   -17691.451499   -17691.450889   -17691.450889  0.000929 -4.666364  0.008365
     spin moment: S , {S} =    0.00000       0.0       0.0   0.00000
   scf:   12   -17691.451360   -17691.451113   -17691.451113  0.000698 -4.665986  0.005236
     spin moment: S , {S} =    0.00000       0.0       0.0   0.00000
   scf:   13   -17691.451257   -17691.451179   -17691.451179  0.000473 -4.665596  0.002484
     spin moment: S , {S} =    0.00000       0.0       0.0   0.00000
   scf:   14   -17691.451198   -17691.451188   -17691.451188  0.000149 -4.665450  0.001321
     spin moment: S , {S} =   -0.00000       0.0       0.0  -0.00000
   scf:   15   -17691.451194   -17691.451191   -17691.451191  0.000086 -4.665342  0.000759
     spin moment: S , {S} =   -0.00000       0.0       0.0  -0.00000

SCF Convergence by DM+H criterion
max |DM_out - DM_in|         :     0.0000859596
max |H_out - H_in|      (eV) :     0.0007589475
SCF cycle converged after 15 iterations

Using DM_out to compute the final energy and forces
No. of atoms with KB's overlaping orbs in proc 0. Max # of overlaps:     186     166

siesta: E_KS(eV) =           -17691.4512

siesta: E_KS - E_eggbox =    -17691.4512
     spin moment: S , {S} =   -0.00000       0.0       0.0  -0.00000

siesta: Atomic forces (eV/Ang):
     1   -1.374195    2.840561    0.446285
     2    0.999824    2.291687   -1.221274
     3    0.852830   -0.058277   -2.224439
     4    1.582396    0.890295    0.316038
     5    0.341898   -1.891593    2.212032
     6   -0.899530   -0.387571    2.403248
     7    0.513249   -0.601968   -0.072769
     8    1.301723   -0.578645   -0.900255
     9    1.907735   -0.045079   -2.020001
    10    0.386491   -1.454461    0.103947
    11    0.312938    1.831142   -0.181283
    12   -0.005051   -1.934944    0.469924
    13   -1.337831    1.813209    0.449032
    14   -0.481179   -1.344963    1.540789
    15   -0.187843   -1.648460    1.781394
    16   -0.214602    1.885151   -0.522330
    17   -0.146790   -0.496457    0.826542
    18   -0.319097    1.715642   -1.779042
    19   -0.980609   -0.766618    2.311584
    20    0.394188    1.285666   -1.654705
    21   -0.394766   -0.719729    1.026244
    22   -0.695420    1.221920   -1.551515
    23   -0.382781   -1.988995    1.949425
    24   -0.216808    0.069151   -1.402299
    25   -0.254550    1.947363   -0.477322
    26    0.181680   -0.426587    1.121797
    27    0.416337    0.742400   -1.508839
    28   -0.455717    0.524391    0.552859
    29    0.067515    0.564022   -0.791406
    30   -0.203720   -0.962959   -0.218552
    31   -1.279148    1.000887    1.708376
    32   -0.688337    1.669658    0.237779
    33   -1.284324   -2.103933    1.108751
    34    0.447258    1.714713   -1.609041
    35   -1.333863   -0.848134   -1.776255
    36   -1.044112    0.426397    1.755707
    37   -0.138070   -2.093720    0.993201
    38    1.293159   -0.176716   -1.751025
    39    2.508147    0.188301   -0.733787
    40   -1.333829   -1.265328   -0.590472
    41    0.069826    1.594105   -0.975842
    42   -0.565926    1.218075    0.733195
    43    0.949636    2.499389    0.617825
    44    1.012673   -0.960262    1.611535
    45    0.237978   -0.991322   -1.467646
    46   -2.172843   -0.578341    0.049556
    47    2.382911   -0.186573   -0.759349
    48   -1.236080   -1.592983    0.550224
    49   -1.463557    1.769385   -0.029854
    50    0.180673   -1.431134    2.146959
    51    0.283279    1.581727   -1.581801
    52    1.245855    0.355522    1.548251
    53    1.376598   -0.830059    0.412261
    54    0.078200   -1.793639    0.546739
    55    1.181703   -1.430208    1.041875
    56   -1.973143   -0.394795    0.186787
    57   -0.947345    0.230191    1.926602
    58   -1.338777   -1.196355    0.069310
    59    1.343327    1.505366   -0.385160
    60   -1.360754    0.381889   -1.441629
    61    0.007703    2.023171   -2.066531
    62    0.198002   -2.475918   -0.649246
    63   -0.476816   -0.177311   -2.062796
    64    1.963825   -0.529925    0.080150
    65    0.649489   -1.540503   -0.132773
    66    0.006227    2.054411    0.511207
    67    0.693375   -0.345308   -2.027180
    68   -0.213764   -1.949246   -0.518136
    69   -0.735995    0.263333    1.865874
    70    0.781738   -0.958999    1.327018
    71    0.174903    2.012966    0.534137
    72   -0.314232   -1.830565   -0.581946
    73    1.827586    0.355686    0.129428
    74   -0.810201    1.086091   -1.380130
    75   -0.899849    0.557330   -1.467258
    76    1.688122    1.434665    0.188904
    77   -1.475326   -1.072294   -0.251591
    78   -0.569277    1.799387    0.379717
    79    1.053972   -0.726793    1.556856
    80   -1.500543   -1.450988   -0.632667
    81   -0.666588    0.764912    1.487794
    82    1.257589    1.195767    0.768949
    83   -1.438588   -1.138899   -0.634216
    84   -0.677377    0.671137    1.956824
    85    1.444457   -0.837022    0.120332
    86   -1.168578   -0.418646   -1.156176
    87    0.875579   -1.756950    0.951261
    88    0.871478    1.368510   -1.415123
    89   -0.489663   -1.230963    1.342558
    90    0.173474   -0.863628   -1.655621
    91   -1.548841   -1.120481   -1.187373
    92    0.693602    1.433625   -1.236000
    93   -0.158478   -1.261009    1.621232
    94   -1.874513    0.903676   -0.320905
    95    2.799579    2.031626    1.095862
    96    1.128266   -1.661400    0.209652
    97    0.872006    1.748641   -0.608529
    98   -1.207457    1.512498   -0.248655
    99   -1.079381   -1.664195    0.590860
   100    1.019281    1.539458   -0.472968
   101   -0.951134   -1.426845    0.848961
   102    1.477008    0.511469    1.083649
   103    0.512048   -0.589412   -1.740557
   104    1.004032   -0.242743   -1.498911
   105   -1.189669    1.551371   -0.180718
   106   -1.039848    0.203353    1.739239
   107    1.270256   -1.499056    0.317382
   108   -1.194573    1.500543   -0.222054
   109   -1.010906   -1.519385    0.247092
   110    1.013642   -0.156067   -1.608959
   111   -0.056387   -3.286463    0.711680
   112    1.174811    0.714589   -1.571525
   113    0.106311    0.639547    1.857535
   114   -2.008488    0.566917   -0.320968
   115    0.466719    1.484110   -1.781928
   116   -1.156917    0.680060    1.272310
   117    2.070448    0.026606    1.094270
   118    0.485763   -0.992291   -1.132930
   119   -2.254806   -2.258798   -2.006643
   120    1.031399   -0.557823   -0.787448
   121    4.421711    3.419649    3.207619
   122    1.929360    0.649679    0.967420
   123   -1.647576   -1.010780   -0.846296
   124    0.590036    1.730466   -1.480371
   125   -0.781757    1.323512    1.713095
   126   -2.106435   -3.249473   -0.128265
   127   -1.076981   -0.262733   -0.237006
   128    1.106454   -0.718150    1.181173
   129    0.707513    1.887535   -0.957683
   130   -0.640707   -1.927918    0.562230
   131   -1.081925    1.433675    1.441691
   132    2.152661    0.378554    0.785566
   133   -0.046908   -2.718995   -1.226642
   134   -0.144581   -0.307283    1.165080
   135    2.402053    3.200944    0.357087
   136   -0.691411   -1.594244   -0.626644
   137   -1.235346    0.896176    1.090605
   138    1.763828   -0.152147    0.948557
   139    1.481859   -1.148495   -1.422925
   140   -1.219845    1.021807    1.110366
   141   -0.612514   -1.725861   -0.252578
   142    0.348532    1.126553   -1.768555
   143   -1.134489    0.676825    1.055325
   144    0.207180    1.670852    1.989183
   145   -2.197356   -1.204125   -1.072578
   146    1.363981    1.209269    0.970360
   147   -1.493758   -0.916437   -0.808128
   148   -0.561475    1.034308    1.645241
   149    1.349605   -1.183582    0.303270
   150   -1.564068   -0.707502   -1.023803
   151    0.980285   -1.407521    0.598517
   152    0.886019    1.247367   -1.217229
   153    2.324257    1.328116    0.763977
   154   -0.731594   -2.370809    0.737121
   155    0.797524    1.841467   -0.163919
   156   -0.523226   -1.897389    0.462125
   157    1.910616    0.355516    0.457544
   158   -0.458699    0.309740   -1.733200
   159   -0.567532   -1.908441    0.618186
   160   -0.110255    0.051402   -1.817203
   161   -1.081391    1.315110    0.994325
   162    0.142703    2.587949   -0.884247
   163   -1.639900   -0.696701   -0.535830
   164   -0.931212    0.950479    0.166097
   165    0.795824    0.881026    0.527570
   166    1.468130   -1.222045   -0.183403
   167    1.597130   -0.120674    0.241543
   168   -1.560868    0.346639   -0.149672
   169   -1.674161   -0.488451   -0.454483
   170    1.673535   -0.527542    0.124010
   171    0.582438    1.546152    0.651529
   172    0.295380    1.497140    0.582966
   173   -1.570094    0.399393   -0.124873
   174    0.765263   -0.470617   -0.047000
   175   -0.232407    0.461331   -0.261110
   176    3.034672   -0.160882    0.481592
   177    0.944672    0.084602    0.188542
   178   -0.164020    1.827062    0.621699
   179    1.343285   -0.212733   -1.573611
   180    0.816497   -1.280224    1.436724
   181   -1.812490    1.868594    0.340857
   182   -2.537642   -0.417939   -0.596031
   183   -2.358077    0.778987   -0.143263
   184   -1.689743   -1.417403   -0.799665
   185    0.535911   -2.182156   -0.680767
   186    2.316646   -0.813089    0.125601
----------------------------------------
   Tot    4.919050    2.588457    4.857867
----------------------------------------
   Max    4.421711
   Res    1.255845    sqrt( Sum f_i^2 / 3N )
----------------------------------------
   Max    4.421711    constrained

Stress tensor Voigt[x,y,z,yz,xz,xy] (kbar):       -3.86       -5.27       -3.51        0.43        0.20        0.04
(Free)E + p*V (eV/cell)   -17598.5501
Target enthalpy (eV/cell)   -17691.4512

siesta: Stress tensor (static) (eV/Ang**3):
        -0.002267    0.000040    0.000140
         0.000040   -0.003147    0.000284
         0.000140    0.000284   -0.002075

siesta: Pressure (static):          3.99945496  kBar

siesta: Stress tensor (total) (eV/Ang**3):
        -0.002411    0.000025    0.000127
         0.000025   -0.003289    0.000271
         0.000127    0.000271   -0.002192

siesta: Pressure (total):          4.21486652  kBar

mulliken: Atomic and Orbital Populations:

mulliken: Spin UP 

Species: C                   
Atom  Qatom  Qorb
               2s      2py     2pz     2px     3Pdxy   3Pdyz   3Pdz2   3Pdxz   
               3Pdx2-y2
   1  1.997   0.478   0.506   0.504   0.483   0.006   0.008   0.010  -0.000
              0.003
   2  2.136   0.493   0.532   0.524   0.560  -0.000   0.001   0.009   0.006
              0.010
   3  2.071   0.496   0.503   0.537   0.508   0.002   0.002   0.006   0.007
              0.010
   4  2.064   0.491   0.517   0.500   0.530   0.008   0.003   0.007   0.006
              0.002
   5  2.141   0.496   0.532   0.535   0.550   0.010  -0.001   0.008   0.006
              0.005
   6  2.001   0.484   0.502   0.500   0.492   0.002   0.007   0.004   0.006
              0.004
   7  1.970   0.434   0.482   0.487   0.505   0.013   0.008   0.018   0.011
              0.012
   8  1.991   0.461   0.513   0.501   0.498   0.005   0.003   0.005   0.002
              0.003
   9  1.997   0.441   0.516   0.509   0.507   0.005   0.004   0.009   0.002
              0.003
  10  1.982   0.430   0.484   0.495   0.509   0.014   0.012   0.019   0.008
              0.010
  11  1.982   0.435   0.519   0.507   0.506   0.004   0.002   0.004   0.001
              0.005
  12  1.963   0.433   0.497   0.506   0.491   0.006   0.014   0.008   0.002
              0.006
  13  1.977   0.470   0.473   0.498   0.475   0.006   0.019   0.009   0.012
              0.014
  15  2.000   0.466   0.508   0.509   0.491   0.004   0.006   0.008   0.004
              0.005
  16  2.011   0.448   0.519   0.522   0.493   0.009   0.008   0.008   0.004
              0.001
  17  1.993   0.428   0.518   0.521   0.510   0.002   0.000   0.004   0.003
              0.006
  19  2.018   0.475   0.525   0.488   0.476   0.011   0.018   0.008   0.007
              0.010
  20  2.024   0.463   0.518   0.508   0.499   0.006   0.010   0.010   0.003
              0.007
  21  2.017   0.469   0.516   0.503   0.502   0.006   0.007   0.005   0.005
              0.004
  22  2.012   0.455   0.514   0.521   0.489   0.008   0.011   0.005   0.006
              0.002
  23  2.020   0.449   0.516   0.515   0.509   0.005   0.009   0.004   0.007
              0.005
  24  1.990   0.479   0.511   0.510   0.464   0.006   0.010   0.006  -0.000
              0.003
  25  2.083   0.465   0.550   0.522   0.519   0.002   0.012   0.002   0.007
              0.006
  26  1.957   0.436   0.517   0.473   0.491   0.010   0.007   0.013   0.006
              0.004
  27  1.958   0.461   0.507   0.468   0.464   0.002   0.013   0.026   0.009
              0.007
  29  1.957   0.455   0.465   0.510   0.472   0.010   0.021   0.009   0.004
              0.012
  30  1.995   0.463   0.509   0.514   0.488  -0.000   0.012   0.003   0.004
              0.002
  31  2.144   0.492   0.513   0.551   0.559   0.008   0.003   0.006   0.004
              0.008
  32  2.076   0.492   0.539   0.498   0.514   0.008   0.004   0.007   0.010
              0.005
  33  2.136   0.502   0.547   0.554   0.513   0.003   0.002   0.005   0.005
              0.006
  34  2.137   0.500   0.554   0.545   0.516   0.003   0.003   0.007   0.004
              0.007
  35  2.143   0.500   0.563   0.537   0.520   0.002   0.004   0.006   0.004
              0.007
  36  2.214   0.515   0.573   0.543   0.563   0.001   0.004   0.004   0.004
              0.006
  37  2.140   0.499   0.534   0.535   0.548   0.007   0.001   0.005   0.007
              0.003
  38  2.216   0.518   0.571   0.547   0.560   0.004   0.001   0.005   0.006
              0.003
  39  2.148   0.497   0.530   0.551   0.542   0.012   0.008   0.005   0.002
              0.002
  40  2.082   0.485   0.524   0.517   0.523   0.010   0.011   0.004   0.004
              0.003
  41  2.201   0.513   0.547   0.554   0.571   0.005   0.007   0.002   0.000
              0.002
  42  2.202   0.504   0.568   0.545   0.562   0.009   0.004   0.002   0.006
              0.001
  43  2.129   0.507   0.542   0.561   0.499   0.004   0.006   0.005  -0.001
              0.005
  44  2.148   0.497   0.536   0.545   0.543   0.009   0.006   0.005   0.006
              0.002
  45  2.229   0.508   0.570   0.542   0.585   0.008   0.006   0.007   0.002
              0.002
  46  2.147   0.493   0.568   0.515   0.543   0.009   0.000   0.008   0.011
              0.002
  47  2.132   0.500   0.561   0.512   0.539   0.007   0.002   0.003   0.007
              0.001
  48  2.075   0.491   0.532   0.506   0.518   0.009   0.002   0.007   0.008
              0.002
  49  2.203   0.513   0.547   0.569   0.557   0.007   0.003   0.004   0.002
              0.001
  50  2.128   0.499   0.538   0.538   0.535   0.007  -0.000   0.005   0.007
              0.001
  51  2.143   0.496   0.542   0.541   0.539   0.008   0.000   0.006   0.008
              0.002
  52  2.214   0.516   0.571   0.549   0.558   0.005   0.001   0.004   0.008
              0.001
  54  2.222   0.510   0.531   0.581   0.574   0.006   0.000   0.008   0.003
              0.009
 115  2.201   0.516   0.556   0.542   0.572   0.002   0.006   0.001   0.003
              0.002
 116  2.086   0.488   0.511   0.526   0.525   0.007   0.009   0.004   0.009
              0.006
 117  2.205   0.515   0.573   0.563   0.537   0.002   0.002   0.002   0.005
              0.004
 118  2.047   0.483   0.520   0.528   0.466   0.012   0.015   0.003   0.013
              0.009
 120  1.888   0.428   0.457   0.455   0.417   0.029   0.018   0.029   0.022
              0.033
 122  2.047   0.480   0.491   0.482   0.543   0.008   0.010   0.019   0.008
              0.006
 123  2.074   0.490   0.508   0.517   0.530   0.010   0.008   0.005   0.004
              0.001
 124  2.204   0.515   0.552   0.555   0.566   0.006   0.006   0.001   0.002
              0.001
 125  2.205   0.516   0.560   0.543   0.568   0.005   0.005   0.001   0.004
              0.002
 127  1.886   0.428   0.416   0.439   0.472   0.040   0.023   0.029   0.008
              0.031
 129  2.046   0.481   0.521   0.505   0.488   0.008   0.008   0.013   0.003
              0.020
 130  2.073   0.489   0.550   0.493   0.512   0.005   0.003   0.010   0.003
              0.008
 131  2.205   0.515   0.552   0.559   0.563   0.003   0.003   0.003   0.003
              0.004
 132  2.205   0.516   0.570   0.570   0.533   0.002   0.002   0.006   0.000
              0.006
 134  1.897   0.428   0.448   0.444   0.441   0.012   0.039   0.037   0.020
              0.028
 163  2.234   0.512   0.581   0.574   0.538   0.001   0.004   0.003   0.012
              0.008
 164  1.970   0.453   0.482   0.488   0.488   0.014   0.010   0.002   0.003
              0.028
 166  2.027   0.457   0.537   0.494   0.483   0.029   0.006   0.004   0.009
              0.008
 167  2.070   0.470   0.526   0.499   0.550   0.009   0.006   0.002   0.003
              0.005
 168  2.009   0.453   0.511   0.501   0.519   0.003   0.005   0.001   0.006
              0.010
 169  2.010   0.452   0.511   0.508   0.516   0.005   0.005   0.001   0.004
              0.007
 170  2.069   0.478   0.526   0.492   0.549   0.008   0.004   0.003   0.003
              0.006
 171  2.072   0.473   0.531   0.506   0.539   0.003   0.005   0.001   0.005
              0.011
 172  2.068   0.475   0.546   0.494   0.528   0.010   0.002   0.002   0.008
              0.004
 173  2.079   0.469   0.520   0.514   0.551   0.008   0.004   0.003   0.003
              0.007
 174  1.953   0.443   0.486   0.490   0.497   0.012   0.008   0.004   0.008
              0.005
 177  1.945   0.439   0.472   0.504   0.498   0.006   0.008   0.000   0.009
              0.007

Species: N                   
Atom  Qatom  Qorb
               2s      2py     2pz     2px     3Pdxy   3Pdyz   3Pdz2   3Pdxz   
               3Pdx2-y2
  14  2.631   0.731   0.543   0.706   0.619   0.008   0.011   0.005   0.002
              0.005
  18  2.638   0.731   0.695   0.549   0.624   0.004   0.012   0.006   0.009
              0.009
  28  2.635   0.738   0.651   0.653   0.556   0.006   0.004   0.012   0.007
              0.008
  53  2.681   0.650   0.636   0.650   0.706   0.006   0.010   0.009   0.005
              0.009
 119  2.664   0.656   0.733   0.662   0.586   0.004   0.005   0.003   0.007
              0.007
 126  2.663   0.658   0.675   0.668   0.636   0.010   0.006   0.004   0.006
              0.001
 133  2.662   0.655   0.632   0.623   0.726   0.003   0.004   0.009   0.006
              0.005
 165  2.636   0.729   0.727   0.574   0.567   0.013   0.005   0.005   0.008
              0.008
 175  2.684   0.649   0.619   0.747   0.632   0.012   0.006   0.005   0.004
              0.008

Species: H                   
Atom  Qatom  Qorb
               1s      2Ppy    2Ppz    2Ppx    
  55  0.427   0.439   0.001  -0.002  -0.012
  56  0.428   0.442  -0.007  -0.010   0.003
  57  0.431   0.445  -0.010   0.006  -0.008
  58  0.426   0.446  -0.010  -0.011   0.001
  59  0.424   0.436  -0.000  -0.008  -0.004
  60  0.423   0.435  -0.010   0.001  -0.003
  61  0.416   0.416   0.007  -0.001  -0.006
  62  0.439   0.427   0.012  -0.006   0.005
  63  0.419   0.438  -0.010   0.003  -0.012
  64  0.423   0.438  -0.008  -0.011   0.005
  65  0.426   0.439   0.004  -0.010  -0.006
  66  0.437   0.450   0.006  -0.011  -0.008
  67  0.418   0.442  -0.014   0.003  -0.013
  68  0.427   0.447   0.006  -0.011  -0.015
  69  0.435   0.450  -0.012   0.003  -0.006
  70  0.431   0.447  -0.009  -0.003  -0.005
  71  0.428   0.446   0.002  -0.012  -0.009
  72  0.428   0.446   0.002  -0.008  -0.012
  73  0.430   0.449  -0.012  -0.010   0.003
  74  0.428   0.450  -0.008  -0.001  -0.013
  75  0.429   0.446  -0.008  -0.002  -0.007
  76  0.430   0.446  -0.001  -0.011  -0.004
  77  0.431   0.449  -0.008  -0.010  -0.001
  78  0.428   0.449  -0.000  -0.009  -0.012
  79  0.430   0.451  -0.013   0.001  -0.009
  80  0.418   0.433  -0.006  -0.011   0.002
  81  0.415   0.429  -0.007   0.001  -0.009
  82  0.425   0.440  -0.004  -0.009  -0.002
  83  0.430   0.449  -0.004  -0.010  -0.005
  84  0.430   0.448  -0.009   0.002  -0.011
  85  0.427   0.449  -0.006  -0.014  -0.002
  86  0.451   0.463  -0.006  -0.004  -0.001
  87  0.432   0.451  -0.005  -0.009  -0.005
  88  0.420   0.451  -0.007  -0.019  -0.005
  89  0.429   0.443  -0.002  -0.006  -0.006
  90  0.429   0.445  -0.007   0.001  -0.010
  91  0.427   0.446  -0.011  -0.010   0.002
  92  0.430   0.445  -0.001  -0.004  -0.010
[...]
   25.4818   25.5671   25.5883   25.6780   25.6907   25.7637   25.8117   25.8235   25.9186   25.9701
   26.0921   26.1800   26.1849   26.2534   26.3221   26.3569   26.4127   26.5190   26.5719   26.6243
   26.6850   26.7072   26.7231   26.8016   26.8655   26.8852   26.8945   27.0080   27.0902   27.2416
   27.2789   27.4097   27.5221   27.5658   27.6069   27.7398   27.7961   27.9194   27.9306   28.0205
   28.0820   28.1670   28.2774   28.3517   28.3636   28.4624   28.5286   28.6381   28.7133   28.7219
   28.8382   29.0574   29.1860   29.2953   29.2993   29.4998   29.6027   29.6094   29.6252   29.6491
   29.6781   29.7206   29.8796   29.9757   30.0532   30.1696   30.2621   30.2744   30.3006   30.3691
   30.4562   30.5828   30.6541   30.7271   30.7556   30.8772   30.9562   31.0038   31.1404   31.2271
   31.2782   31.3601   31.4812   31.5239   31.6602   31.6957   31.7412   31.8508   31.8829   31.8865
   31.9346   31.9892   32.1518   32.2490   32.3442   32.4064   32.5011   32.5406   32.7470   32.8753
   32.9392   33.0004   33.0518   33.1911   33.2646   33.3036   33.5234   33.5950   33.6362   33.7100
   33.7235   33.7353   33.9022   34.0039   34.0536   34.2599   34.3479   34.4813   34.6443   34.7411
   34.7690   34.8813   34.9421   34.9810   35.0804   35.1829   35.3141   35.3227   35.4052   35.5594
   35.6069   35.6976   35.8706   35.8750   35.9419   35.9993   36.1015   36.1652   36.2320   36.3146
   36.3377   36.4932   36.5093   36.6691   36.7017   36.7873   36.8389   36.8947   36.9744   37.0973
   37.2001   37.3720   37.4868   37.5731   37.7106   37.8304   38.1407   38.1998   38.3339   38.3380
   38.3551   38.4954   38.6533   38.7347   38.7466   38.8410   39.0732   39.1714   39.3655   39.4332
   39.4872   39.5687   39.7142   39.7578   39.9553   39.9949   40.1005   40.1632   40.2798   40.3259
   40.5572   40.5852   40.6575   40.9038   40.9101   40.9235   41.0452   41.2411   41.3154   41.3856
   41.3982   41.4902   41.5733   41.6807   41.8215   41.9421   41.9994   42.0679   42.2001   42.2689
   42.3658   42.4443   42.5289   42.5855   42.5990   42.7034   42.8716   42.8830   43.2323   43.3345
   43.3979   43.4138   43.6213   43.7134   43.7314   43.8803   43.9760   44.0065   44.0827   44.1977
   44.2479   44.2809   44.3786   44.5179   44.6363   44.6888   44.7378   44.7430   44.9227   45.0102
   45.1351   45.1718   45.3042   45.4944   45.5783   45.6296   45.7146   45.7399   45.8058   45.8511
   46.0043   46.2245   46.3083   46.3269   46.3430   46.4936   46.6088   46.6852   46.7215   46.9697
   47.0430   47.0822   47.1509   47.2432   47.2621   47.3380   47.4009   47.4172   47.4924   47.5672
   47.6925   47.7328   47.8322   47.9086   48.1455   48.1463   48.1807   48.3686   48.4200   48.5434
   48.7422   48.8396   48.9434   49.0313   49.1483   49.3174   49.3468   49.6177   49.7516   49.9037
   50.0087   50.1110   50.3953   50.4103   50.5173   50.5839   50.6002   50.6489   50.7736   50.9637
   51.1203   51.1702   51.2968   51.3733   51.4426   51.5978   51.8099   51.9996   52.2503   52.4298
   52.5067   52.8480   52.9572   53.0995   53.2732   53.4004   53.4943   53.6125   53.6400   53.7414
   53.7679   53.9069   54.1097   54.3713   54.4322   54.5816   54.7103   54.9223   55.0173   55.1798
   55.3519   55.3906   55.4904   55.5968   55.9505   56.3193   56.4116   56.6190   57.1159   57.1856
   57.2825   57.2966   57.6196   57.7224   57.7297   57.9376   57.9523   58.4501   58.6462   58.7737
   58.8293   59.0320   59.2344   59.5303   59.6725   59.7429   60.2732   60.4158   60.6880   60.8266
   60.8841   60.9736   61.0562   61.3613   61.5014   61.8837   62.2068   62.2177   62.5065   62.6333
   62.8637   63.0483   63.3314   63.5972   63.6799   63.7476   64.0140   64.1678   64.6907   64.9321
   65.0151   65.1748   65.2478   65.3679   65.6790   65.8288   65.9841   66.0676   66.3638   66.3728
   66.8585   67.0905   67.2887   67.3827   67.4752   67.8161   67.9431   67.9705   68.2251   68.2596
   68.4068   68.7089   69.0544   69.2173   69.2702   69.3134   69.4790   69.7403   69.8316   70.0904
   70.3726   70.5022   70.9324   71.0133   71.3582   71.4395   71.5112   72.1447   72.4773   72.8039
   72.9517   73.3337   73.3731   74.0531   74.2891   74.3773   74.8650   75.3834   75.7186   77.3970
   77.5938   79.9554   80.0732   80.8013   80.9291   81.9691   82.5464   83.2181   83.8563   84.6632
   85.7116   87.0658   87.3443   87.7218   91.5041   91.7826   96.6844   98.5572  103.4531

siesta: PDOS info
siesta: E1 -- E2, sigma [eV], nhist:  -10.000 --   10.000    0.200 500

siesta: Program's energy decomposition (eV):
siesta: Ebs     =     -6066.578028
siesta: Eions   =     27060.263326
siesta: Ena     =      5404.951542
siesta: Ekin    =     11570.921946
siesta: Enl     =     -1719.169976
siesta: Eso     =         0.000000
siesta: Edftu   =         0.000000
siesta: DEna    =        96.070218
siesta: DUscf   =        23.103912
siesta: DUext   =         0.000000
siesta: Exc     =     -6011.550246
siesta: eta*DQ  =         0.000000
siesta: Emadel  =         0.000000
siesta: Emeta   =         0.000000
siesta: Emolmec =         0.000000
siesta: Ekinion =         9.854672
siesta: Eharris =    -17686.081258
siesta: Etot    =    -17686.081258
siesta: FreeEng =    -17686.081258

siesta: Final energy (eV):
siesta:  Band Struct. =   -6066.578028
siesta:       Kinetic =   11570.921946
siesta:       Hartree =   97811.968341
siesta:       Edftu   =       0.000000
siesta:       Eso     =       0.000000
siesta:    Ext. field =       0.000000
siesta:   Exch.-corr. =   -6011.550246
siesta:  Ion-electron = -206288.481814
siesta:       Ion-ion =   85221.205843
siesta:       Ekinion =       9.854672
siesta:         Total =  -17686.081258
siesta:         Fermi =      -5.180037

siesta: Atomic forces (eV/Ang):
siesta:      1   -0.118438   -0.194560   -0.080679
siesta:      2   -0.204413   -0.611132    0.470692
siesta:      3   -0.423920    0.952829    2.235047
siesta:      4   -1.534894   -2.031035   -0.850982
siesta:      5   -1.955529   -1.574272    1.085598
siesta:      6    1.558550    0.090889   -2.844221
siesta:      7   -0.192469   -0.174263    0.190992
siesta:      8   -0.571355    1.350407    0.893630
siesta:      9   -0.720690   -0.397407    1.863202
siesta:     10   -0.757378    0.681130   -0.763096
siesta:     11    0.826878   -2.494592    0.947927
siesta:     12   -0.288976    0.249668   -0.274247
siesta:     13    0.314634   -1.868740    0.040242
siesta:     14    0.517322    2.152688    0.839108
siesta:     15    0.398262    2.143175   -2.486671
siesta:     16    0.444604   -1.417919    1.594666
siesta:     17    0.569313   -0.378917    0.001993
siesta:     18   -1.258374    1.362551    0.909642
siesta:     19    0.664041   -0.149535   -1.222889
siesta:     20    0.088987   -0.520502    0.705156
siesta:     21   -0.403417    0.403182   -0.473765
siesta:     22   -0.706415   -0.387124   -0.423065
siesta:     23   -0.353731    2.341872   -1.269126
siesta:     24    0.877750   -1.771400    0.569796
siesta:     25    0.014734   -1.298631    0.367552
siesta:     26    0.073246    0.253959   -0.582574
siesta:     27   -0.208264    0.358065    0.419438
siesta:     28   -0.195368   -0.080202   -0.067176
siesta:     29   -0.628936   -1.451723    0.397934
siesta:     30    0.160534    1.815746   -0.001975
siesta:     31   -0.452152   -0.978571    0.109288
siesta:     32   -0.126452   -0.175466   -2.261130
siesta:     33    0.215927   -0.901444   -1.385618
siesta:     34   -0.863649   -0.511952    0.272516
siesta:     35    0.559514    1.346770    0.447851
siesta:     36    0.659701   -1.084691    0.551026
siesta:     37    1.482685    0.112797    1.059180
siesta:     38    0.417635    1.168554   -0.846185
siesta:     39    0.515897    0.514020   -1.028061
siesta:     40   -0.541175    0.210489   -0.005598
siesta:     41   -0.847046    0.499104    1.483650
siesta:     42   -0.889276   -0.415548   -1.257549
siesta:     43    0.002446   -0.440737   -0.514466
siesta:     44    1.742984    0.670238   -0.339401
siesta:     45   -0.179647   -0.442496    2.707620
siesta:     46    1.782721    0.822997    0.393944
siesta:     47   -1.300853   -0.475150   -0.568896
siesta:     48    1.327469    1.229583    0.839003
siesta:     49   -0.069691    1.187756    0.153252
siesta:     50   -0.117390   -0.610866   -0.411472
siesta:     51   -0.250343   -0.690682    0.305522
siesta:     52    0.638268    0.422410   -0.508531
siesta:     53    0.196110    2.329004    0.886307
siesta:     54   -0.438310    1.163970   -0.222655
siesta:     55    0.041044    0.290968    0.110928
siesta:     56    0.236648    0.290500    0.163009
siesta:     57    0.244117    0.104849   -0.488580
siesta:     58    1.406056    1.674712   -0.522764
siesta:     59    0.264784    0.818866   -0.352911
siesta:     60    1.503172    0.203580    0.486733
siesta:     61    0.364423   -0.218930    0.387664
siesta:     62   -0.320595    0.211135   -0.496814
siesta:     63    0.218671   -0.305607   -0.359458
siesta:     64    0.019751   -0.373834   -0.076855
siesta:     65    0.358763    1.067667    0.102198
siesta:     66   -0.290466   -0.440329    0.369804
siesta:     67    0.157717    0.144163    0.560311
siesta:     68   -0.108898    0.785765   -0.269865
siesta:     69    0.147115    0.316011   -0.594582
siesta:     70   -0.134293    0.236807   -0.177458
siesta:     71   -0.153581   -1.527669   -0.298694
siesta:     72   -0.223465    1.072151   -0.008233
siesta:     73   -0.641447    0.203792   -0.068605
siesta:     74   -0.187567   -0.071918   -0.313318
siesta:     75   -0.338065   -0.024201   -0.214688
siesta:     76   -0.474565   -0.275982    0.114933
siesta:     77   -0.418508   -0.394298    0.040578
siesta:     78   -0.138364   -0.151506    0.223633
siesta:     79    0.231686   -0.190218    0.105733
siesta:     80    0.083331   -0.620896   -0.399605
siesta:     81    0.055226    0.456734    0.786738
siesta:     82   -0.240849   -0.817551   -0.233630
siesta:     83    1.373486    0.540906    0.312049
siesta:     84    0.209656   -0.654748   -1.292515
siesta:     85   -0.882729    0.216126   -0.132973
siesta:     86    1.188606    0.471282    1.399731
siesta:     87   -0.379693    0.733512    0.026648
siesta:     88    0.374443   -0.594705    0.432398
siesta:     89    0.337332    0.180842   -0.365058
siesta:     90    0.269180    0.290450    0.895545
siesta:     91   -0.677918   -0.107749   -0.211568
siesta:     92   -0.152792   -0.461764   -0.037986
siesta:     93   -0.230288    0.754933   -1.495828
siesta:     94    0.060760   -0.277489   -0.138054
siesta:     95   -0.171247    0.181713   -0.509113
siesta:     96   -0.705703    0.331074   -0.103149
siesta:     97    0.311748   -0.428278    0.153904
siesta:     98   -0.263383   -1.350303   -0.178472
siesta:     99    0.213478    1.184351   -0.231496
siesta:    100   -0.224572   -1.212928    0.625434
siesta:    101    0.057938   -0.039051    0.554181
siesta:    102   -1.167722   -0.298403   -0.388766
siesta:    103    0.229895    0.065099   -0.530763
siesta:    104   -0.340951   -0.145852    0.033874
siesta:    105   -0.041030    0.088005    0.085917
siesta:    106    0.229047    0.078512   -0.522798
siesta:    107   -0.336659    0.614860   -0.161311
siesta:    108    0.655349   -0.510180    0.092570
siesta:    109   -0.061658   -0.089786    0.318469
siesta:    110   -0.526634    0.389400    0.528279
siesta:    111   -0.143706   -2.051757   -0.246314
siesta:    112   -0.736735   -0.399011    0.819651
siesta:    113    0.136502   -0.215268   -0.250919
siesta:    114    0.699849   -0.252481   -0.257412
siesta:    115   -0.256060    0.291176    0.887655
siesta:    116    0.438316   -0.079603   -2.849595
siesta:    117    0.807751    1.004871    0.277809
siesta:    118   -1.112018    0.797259    0.561759
siesta:    119    2.002598    0.074861    0.943315
siesta:    120    0.867144    0.146953    0.160915
siesta:    121   -4.960999   -4.234365    0.171928
siesta:    122   -1.273000   -0.371797    0.147997
siesta:    123   -0.392594    1.149635    0.800287
siesta:    124   -1.482018    0.493795    0.909055
siesta:    125   -0.709447    0.503449    0.087307
siesta:    126   -0.693590   -1.016233   -0.772293
siesta:    127    1.260798   -0.713415    0.520215
siesta:    128   -2.111929    1.309589    1.155831
siesta:    129   -0.711817    0.080597    0.174399
siesta:    130    1.073316    1.785463    0.715164
siesta:    131   -0.216801   -1.421291   -0.111770
siesta:    132   -1.215826   -0.206352    0.247799
siesta:    133   -0.700144   -2.716522    1.396247
siesta:    134    0.118237    0.938776   -0.619295
siesta:    135    0.283584   -4.785245    0.401754
siesta:    136   -0.097694    0.082373   -0.114754
siesta:    137    0.757475   -0.444032   -0.389838
siesta:    138   -0.070831    0.119700    0.082317
siesta:    139   -1.058725    0.484791    1.445060
siesta:    140    0.682726   -0.556050   -0.403769
siesta:    141   -0.153299    0.018997   -0.064216
siesta:    142   -0.343147   -0.325052    0.348730
siesta:    143    0.154970   -0.188005   -0.106215
siesta:    144   -0.358856   -0.088984   -0.373667
siesta:    145    0.308618    0.353727    0.661256
siesta:    146    0.790921   -0.136134    0.141769
siesta:    147    0.958795    0.311460    0.201859
siesta:    148    0.186639   -0.184410   -1.290550
siesta:    149    0.225198   -0.568911   -0.137465
siesta:    150    0.392217   -0.227447   -0.072365
siesta:    151    0.045034   -0.342941   -0.011867
siesta:    152    0.072058    0.252538   -0.308103
siesta:    153    0.789333    0.472747    0.378097
siesta:    154   -0.392486   -0.251989   -0.148341
siesta:    155   -0.253067   -0.584247    0.405311
siesta:    156    0.384723    0.518410   -0.105044
siesta:    157   -0.811505    0.024966   -0.355439
siesta:    158    0.793481   -0.070669   -0.076542
siesta:    159   -0.084935    0.672878   -0.292912
siesta:    160   -0.113730    0.215617    0.781232
siesta:    161    0.973480   -1.211187   -0.480663
siesta:    162    0.109400    2.949523   -1.217681
siesta:    163    0.458980   -0.170351   -0.793231
siesta:    164   -0.591647   -0.495830    0.537525
siesta:    165   -0.955214    0.441793   -0.958055
siesta:    166    0.285093    0.055859    0.013166
siesta:    167   -0.760505    0.404325    0.505545
siesta:    168    1.074629   -0.660958    0.047942
siesta:    169    1.538754   -0.879899   -0.318381
siesta:    170   -0.204074   -0.129607    0.146770
siesta:    171   -0.271784   -0.639770   -0.631821
siesta:    172   -0.445051   -0.210464   -0.279605
siesta:    173   -0.327099   -0.195540    0.270312
siesta:    174   -0.159136    0.176077   -0.081274
siesta:    175   -1.875426   -0.268503   -0.232400
siesta:    176    0.552443    0.078239    0.059053
siesta:    177    0.743937    0.856475   -0.101605
siesta:    178   -0.325927   -0.470880    0.101085
siesta:    179   -0.145583    0.010543    0.242039
siesta:    180   -0.049080    0.136658    0.130709
siesta:    181   -0.393556    0.718741    0.374572
siesta:    182    0.407773    0.575112    0.010206
siesta:    183    0.027458   -0.199692   -0.066059
siesta:    184    0.581338    0.513013    0.451242
siesta:    185   -0.177091    0.804989    0.300785
siesta:    186    0.295221    0.241751   -0.041860
siesta: ----------------------------------------
siesta:    Tot   -5.395901   -3.178280    3.241444

siesta: Stress tensor (static) (eV/Ang**3):
siesta:     0.000742    0.000220    0.000167
siesta:     0.000220    0.000433    0.000081
siesta:     0.000167    0.000081    0.000225

siesta: Cell volume =      35314.402149 Ang**3

siesta: Pressure (static):
siesta:                Solid            Molecule  Units
siesta:          -0.00000508          0.00000028  Ry/Bohr**3
siesta:          -0.00046647          0.00002613  eV/Ang**3
siesta:          -0.74736879          0.04186389  kBar
(Free)E+ p_basis*V_orbitals  =      -17657.868666
(Free)Eharris+ p_basis*V_orbitals  =      -17657.868666
     spin moment: S , {S} =   -0.00000       0.0       0.0  -0.00000

siesta: Electric dipole (a.u.)  =  -14.219476   -4.028446   -0.549115
siesta: Electric dipole (Debye) =  -36.142329  -10.239297   -1.395712

cite: Please see "siesta.bib" for an exhaustive BiBTeX file.
cite: This calculation has made use of the following articles.
cite: Articles are encouraged to be cited in a published work.
        Primary SIESTA paper
          DOI: www.doi.org/10.1088/0953-8984/14/11/302


timer: Elapsed wall time (sec) =    2529.449
timer: CPU execution times (sec):

Routine            Calls   Time/call    Tot.time        %
siesta                 1    2528.017    2528.017   100.00
Setup                  1       0.369       0.369     0.01
bands                  3     140.224     420.672    16.64
KSV_init               1       0.000       0.000     0.00
IterGeom              10     147.785    1477.854    58.46
state_init            10       0.445       4.446     0.18
hsparse               10       0.036       0.358     0.01
overlap               10       0.342       3.417     0.14
Setup_H0              10       8.323      83.228     3.29
naefs                 20       0.002       0.038     0.00
MolMec                20       0.000       0.000     0.00
kinefsm               20       0.231       4.624     0.18
nlefsm                20       1.729      34.572     1.37
DHSCF_Init            10       5.255      52.548     2.08
DHSCF1                10       0.040       0.401     0.02
INITMESH              10       0.000       0.000     0.00
DHSCF2                10       5.215      52.146     2.06
REMESH                10       0.508       5.076     0.20
REORD                634       0.018      11.420     0.45
PHION                 10       3.052      30.518     1.21
COMM_BSC             950       0.015      13.996     0.55
POISON               124       1.010     125.212     4.95
fft                  248       0.406     100.720     3.98
IterSCF               93      13.743    1278.141    50.56
setup_H              103       4.355     448.564    17.74
DHSCF                114       4.847     552.575    21.86
DHSCF3               114       4.336     494.316    19.55
rhoofd               114       1.077     122.821     4.86
XC                   114       0.768      87.544     3.46
GXC-CellXC           114       0.587      66.949     2.65
cellXC               114       0.587      66.948     2.65
vmat                 113       0.910     102.840     4.07
compute_dm            93       8.899     827.593    32.74
diagon                93       8.895     827.260    32.72
r-eigvec             186       4.007     745.244    29.48
r-buildHS            186       0.004       0.675     0.03
rdiag                188       4.001     752.099    29.75
rdiag1               188       0.131      24.543     0.97
rdiag2               188       0.285      53.612     2.12
rdiag3               188       2.376     446.753    17.67
rdiag4               188       1.203     226.159     8.95
r-buildD              93       0.863      80.286     3.18
MIXER                 83       0.011       0.900     0.04
PostSCF               10      11.191     111.910     4.43
DHSCF4                10       5.826      58.258     2.30
dfscf                 10       4.997      49.970     1.98
overfsm               10       0.112       1.122     0.04
state_analysis        10       0.007       0.069     0.00
siesta_move           10       0.004       0.040     0.00
Analysis               1    1049.783    1049.783    41.53
c-eigval             152       2.766     420.463    16.63
c-buildHS            152       0.013       1.992     0.08
cdiag                152       2.753     418.470    16.55
cdiag1               152       0.436      66.281     2.62
cdiag2               152       0.920     139.892     5.53
cdiag3               152       1.397     212.292     8.40
pdos                   1     625.170     625.170    24.73
optical                1       0.000       0.000     0.00
  

>> End of run:  15-DEC-2020  12:23:55
Job completed
