
     Program PWSCF v.6.1 starts on 14Sep2020 at 10:42: 6 

     This program is part of the open-source Quantum ESPRESSO suite
     for quantum simulation of materials; please cite
         "P. Giannozzi et al., J. Phys.:Condens. Matter 21 395502 (2009);
          URL http://www.quantum-espresso.org", 
     in publications or presentations arising from this work. More details at
     http://www.quantum-espresso.org/quote

     Parallel version (MPI & OpenMP), running on       4 processor cores
     Number of MPI processes:                 4
     Threads/MPI process:                     1
     R & G space division:  proc/nbgrp/npool/nimage =       4
     Reading input from espresso.in

     Current dimensions of program PWSCF are:
     Max number of different atomic species (ntypx) = 10
     Max number of k-points (npk) =  40000
     Max angular momentum in pseudopotentials (lmaxx) =  3

     Subspace diagonalization in iterative solution of the eigenvalue problem:
     a serial algorithm will be used

     Found symmetry operation: I + (  0.0000 -0.5000 -0.5000)
     This is a supercell, fractional translations are disabled

     Parallelization info
     --------------------
     sticks:   dense  smooth     PW     G-vecs:    dense   smooth      PW
     Min         115     115     34                 1873     1873     308
     Max         117     117     35                 1875     1875     311
     Sum         465     465    137                 7497     7497    1237


     Title: 
     AlTest(SCF)                                                                


     bravais-lattice index     =            1
     lattice parameter (alat)  =       7.6325  a.u.
     unit-cell volume          =     444.6267 (a.u.)^3
     number of atoms/cell      =            4
     number of atomic types    =            1
     number of electrons       =        12.00
     number of Kohn-Sham states=           10
     kinetic-energy cutoff     =      25.0000  Ry
     charge density cutoff     =     100.0000  Ry
     convergence threshold     =      1.0E-06
     mixing beta               =       0.7000
     number of iterations used =            8  plain     mixing
     Exchange-correlation      =  SLA  PW   PBE  PBE ( 1  4  3  4 0 0)

     celldm(1)=   7.632472  celldm(2)=   0.000000  celldm(3)=   0.000000
     celldm(4)=   0.000000  celldm(5)=   0.000000  celldm(6)=   0.000000

     crystal axes: (cart. coord. in units of alat)
               a(1) = (   1.000000   0.000000   0.000000 )  
               a(2) = (   0.000000   1.000000   0.000000 )  
               a(3) = (   0.000000   0.000000   1.000000 )  

     reciprocal axes: (cart. coord. in units 2 pi/alat)
               b(1) = (  1.000000  0.000000  0.000000 )  
               b(2) = (  0.000000  1.000000  0.000000 )  
               b(3) = (  0.000000  0.000000  1.000000 )  


     PseudoPot. # 1 for Al read from file:
     C:\Users\Colin\.burai\.pseudopot/Al.pbe-rrkj.UPF
     MD5 check sum: b5320f8fdc07ab0d74f109f4aa58256b
     Pseudo is Norm-conserving, Zval =  3.0
     Generated by new atomic code, or converted to UPF format
     Using radial grid of  879 points,  4 beta functions with: 
                l(1) =   0
                l(2) =   0
                l(3) =   1
                l(4) =   1

     atomic species   valence    mass     pseudopotential
        Al             3.00    26.98154     Al( 1.00)

     48 Sym. Ops., with inversion, found



   Cartesian axes

     site n.     atom                  positions (alat units)
         1           Al  tau(   1) = (   0.0000000   0.0000000   0.0000000  )
         2           Al  tau(   2) = (   0.0000000   0.5000000   0.5000000  )
         3           Al  tau(   3) = (   0.5000000   0.0000000   0.5000000  )
         4           Al  tau(   4) = (   0.5000000   0.5000000   0.0000000  )

     number of k points=     4  gaussian smearing, width (Ry)=  0.0100
                       cart. coord. in units 2pi/alat
        k(    1) = (   0.0000000   0.0000000   0.0000000), wk =   0.0740741
        k(    2) = (   0.0000000   0.0000000   0.3333333), wk =   0.4444444
        k(    3) = (   0.0000000   0.3333333   0.3333333), wk =   0.8888889
        k(    4) = (   0.3333333   0.3333333   0.3333333), wk =   0.5925926

     Dense  grid:     7497 G-vectors     FFT dimensions: (  25,  25,  25)

     Estimated max dynamical RAM per process >       1.54MB

     Estimated total allocated dynamical RAM >       6.16MB

     Initial potential from superposition of free atoms

     starting charge   11.98964, renormalised to   12.00000
     Starting wfc are   16 randomized atomic wfcs

     total cpu time spent up to now is        0.7 secs

     Self-consistent Calculation

     iteration #  1     ecut=    25.00 Ry     beta=0.70
     Davidson diagonalization with overlap
     ethr =  1.00E-02,  avg # of iterations =  3.0

     Threshold (ethr) on eigenvalues was too large:
     Diagonalizing with lowered threshold

     Davidson diagonalization with overlap
     ethr =  1.86E-04,  avg # of iterations =  1.8

     total cpu time spent up to now is        0.8 secs

     total energy              =     -16.56086994 Ry
     Harris-Foulkes estimate   =     -16.56206862 Ry
     estimated scf accuracy    <       0.02210572 Ry

     iteration #  2     ecut=    25.00 Ry     beta=0.70
     Davidson diagonalization with overlap
     ethr =  1.84E-04,  avg # of iterations =  1.0

     total cpu time spent up to now is        1.0 secs

     total energy              =     -16.56111842 Ry
     Harris-Foulkes estimate   =     -16.56102738 Ry
     estimated scf accuracy    <       0.00173324 Ry

     iteration #  3     ecut=    25.00 Ry     beta=0.70
     Davidson diagonalization with overlap
     ethr =  1.44E-05,  avg # of iterations =  1.0

     total cpu time spent up to now is        1.0 secs

     total energy              =     -16.56114608 Ry
     Harris-Foulkes estimate   =     -16.56114421 Ry
     estimated scf accuracy    <       0.00000210 Ry

     iteration #  4     ecut=    25.00 Ry     beta=0.70
     Davidson diagonalization with overlap
     ethr =  1.75E-08,  avg # of iterations =  4.5

     total cpu time spent up to now is        1.1 secs

     End of self-consistent calculation

          k = 0.0000 0.0000 0.0000 (   925 PWs)   bands (ev):

    -3.1312   5.0575   5.0575   5.0575   6.4133   6.4133   6.4134  13.2359
    13.2362  13.5912

          k = 0.0000 0.0000 0.3333 (   932 PWs)   bands (ev):

    -2.1296   0.8330   5.9813   5.9813   7.3573   7.3574   8.7598   8.7598
    10.3747  10.3748

          k = 0.0000 0.3333 0.3333 (   946 PWs)   bands (ev):

    -1.1347   1.8083   1.8083   4.6878   6.9063   8.4093   9.6876   9.6877
    11.1740  11.1740

          k = 0.3333 0.3333 0.3333 (   943 PWs)   bands (ev):

    -0.1461   2.7760   2.7760   2.7760   5.6638   5.6638   5.6638   8.4917
    14.2157  14.2158

     the Fermi energy is     8.3338 ev

!    total energy              =     -16.56114718 Ry
     Harris-Foulkes estimate   =     -16.56114719 Ry
     estimated scf accuracy    <       0.00000005 Ry

     The total energy is the sum of the following terms:

     one-electron contribution =      11.46449460 Ry
     hartree contribution      =       0.02916393 Ry
     xc contribution           =      -6.42715541 Ry
     ewald contribution        =     -21.62537170 Ry
     smearing contrib. (-TS)   =      -0.00227861 Ry

     convergence has been achieved in   4 iterations

     Writing output data file espresso.save

     init_run     :      0.06s CPU      0.44s WALL (       1 calls)
     electrons    :      0.14s CPU      0.43s WALL (       1 calls)

     Called by init_run:
     wfcinit      :      0.02s CPU      0.19s WALL (       1 calls)
     potinit      :      0.02s CPU      0.03s WALL (       1 calls)

     Called by electrons:
     c_bands      :      0.09s CPU      0.30s WALL (       5 calls)
     sum_band     :      0.00s CPU      0.03s WALL (       5 calls)
     v_of_rho     :      0.03s CPU      0.02s WALL (       5 calls)
     mix_rho      :      0.02s CPU      0.04s WALL (       5 calls)

     Called by c_bands:
     init_us_2    :      0.00s CPU      0.01s WALL (      44 calls)
     cegterg      :      0.09s CPU      0.25s WALL (      20 calls)

     Called by sum_band:

     Called by *egterg:
     h_psi        :      0.09s CPU      0.19s WALL (      69 calls)
     g_psi        :      0.00s CPU      0.00s WALL (      45 calls)
     cdiaghg      :      0.00s CPU      0.22s WALL (      61 calls)

     Called by h_psi:
     h_psi:pot    :      0.09s CPU      0.19s WALL (      69 calls)
     h_psi:calbec :      0.02s CPU      0.05s WALL (      69 calls)
     vloc_psi     :      0.06s CPU      0.13s WALL (      69 calls)
     add_vuspsi   :      0.02s CPU      0.01s WALL (      69 calls)

     General routines
     calbec       :      0.02s CPU      0.05s WALL (      69 calls)
     fft          :      0.00s CPU      0.12s WALL (      56 calls)
     fftw         :      0.06s CPU      0.11s WALL (    1330 calls)

     Parallel routines
     fft_scatter  :      0.00s CPU      0.06s WALL (    1386 calls)

     PWSCF        :     0.28s CPU         1.28s WALL


   This run was terminated on:  10:42: 8  14Sep2020            

=------------------------------------------------------------------------------=
   JOB DONE.
=------------------------------------------------------------------------------=
