Siesta Version  : master-post-4.1-266
Architecture    : unknown
Compiler version: GNU Fortran (Ubuntu 9.3.0-17ubuntu1~20.04) 9.3.0
Compiler flags  : gfortran -O2 -fPIC -ftree-vectorize
PP flags        : -DFC_HAVE_ABORT -DSIESTA__DIAG_2STAGE -DSIESTA__MRRR
Libraries       : libsiestaLAPACK.a libsiestaBLAS.a
Directory       : /home/colinw/siesta/mixture_simulations/Mixture3
SERIAL version

* Running in serial mode
>> Start of run:  13-DEC-2020  23:51:02

                           ***********************       
                           *  WELCOME TO SIESTA  *       
                           ***********************       

reinit: Reading from standard input
reinit: Dumped input in INPUT_TMP.82040
************************** Dump of input data file ****************************
NumberOfAtoms 136
SpinPolarized yes
#FixSpin .true.
#TotalSpin
NumberOfSpecies 4
MD.TypeOfRun  nose
MD.FinalTimeStep 10
MD.LengthTimeStep 1.0  fs
MD.InitialTemperature 300 K
MD.TargetTemperature  300  K
%block ChemicalSpeciesLabel
1  6  C
2  7  N
3  1  H
4  8  O
%endblock ChemicalSpeciesLabel
PAO.BasisSize dzp
 PAO.EnergyShift 0.02 Ry
MeshCutoff          100 Ry
MaxSCFIterations    100
DM.NumberPulay       3
DM.Tolerance         1e-3
WriteDenchar	.true.
%block ProjectedDensityOfStates
-10.0 10.0 0.200 500 eV
%endblock ProjectedDensityOfStates
NetCharge 0.00
%block BandLines
1  1.000  1.000 1.000  L
20 0.00   0.00   0.00  \Gamma
25 2.00   0.000  0.00  X
30 2.00   2.00   2.00  \Gamma
%endblock BandLines
LongOutput .true.
WriteCoorXmol .true.
LatticeConstant 1 Ang
%block LatticeVectors
  34.944834 0.0 0.0
  0.0 27.825682 0.0
  0.0 0.0 22.154948
%endblock LatticeVectors
#UseSaveData .true.
%block kgrid_Monkhorst_Pack
1 0 0 0.0
 0 1 0 0.0
 0 0 1 0.0
%endblock kgrid_Monkhorst_Pack
WriteMDXmol .true.
AtomicCoordinatesFormat Ang
%block AtomicCoordinatesAndAtomicSpecies
14.326124  15.798794 4.378562  1
15.467531  16.455126 3.662637  1
15.616011  17.833124 3.672594  1
16.767238  18.402118 3.118676  1
16.961181  19.793145 3.180142  1
18.154456  20.377362 2.726441  1
18.419783  21.745448 2.834643  1
19.575990  22.335624 2.449415  2
20.513246  21.528767 1.916844  1
20.346847  20.165672 1.736448  1
19.148430  19.570185 2.153229  1
18.927364  18.184072 2.041489  1
17.746803  17.570461 2.535817  1
17.478106  16.181954 2.516948  1
18.426536  15.162028 1.958064  1
16.368341  15.636388 3.082391  2
13.601629  16.530898 4.748544  3
14.712433  15.239363 5.237270  3
13.805650  15.107314 3.709915  3
14.863392  18.455320 4.147292  3
16.195881  20.425055 3.622241  3
17.692042  22.426961 3.266556  3
21.439908  22.019478 1.631486  3
21.147935  19.578667 1.298522  3
19.706488  17.579059 1.589593  3
19.169772  15.578264 1.275874  3
17.866214  14.410583 1.390342  3
18.947067  14.657633 2.778815  3
3.892579  18.018323 13.521658  1
4.367035  16.766115 12.871383  1
5.634178  16.444553 12.563415  1
6.818046  17.356747 12.801759  1
5.975260  15.144745 11.893062  1
5.375341  13.847513 12.455247  1
5.970035  12.573281 11.823776  1
7.426107  12.177242 12.211574  1
7.827539  10.938171 11.405947  1
8.468580  13.299031 12.043608  1
9.943324  12.909160 12.259406  1
10.813369  14.156373 12.043540  1
12.325923  13.954699 12.256500  1
12.907687  12.959062 11.248553  1
13.140314  15.279529 12.282422  1
13.174537  16.147125 11.005688  1
11.843942  16.807003 10.640421  1
11.795185  17.541034 9.292544  1
12.212801  16.636719 8.129349  1
10.359192  18.032481 9.059527  1
3.068040  17.789600 14.202161  3
3.533530  18.712305 12.757095  3
4.672151  18.505055 14.107275  3
3.575000  16.053560 12.622690  3
6.540305  18.413838 12.804123  3
7.572277  17.242237 12.016283  3
7.290529  17.117130 13.762827  3
7.047973  15.097301 11.972248  3
5.782405  15.215037 10.815402  3
4.297080  13.843729 12.243829  3
5.477838  13.799804 13.545290  3
5.866518  12.633669 10.733356  3
5.322166  11.737258 12.131532  3
7.411370  11.893450 13.271681  3
7.948586  11.176189 10.346008  3
7.070918  10.148439 11.496380  3
8.768936  10.521147 11.775438  3
8.285073  14.035197 12.833120  3
8.365158  13.759856 11.061674  3
10.231685  12.144136 11.529025  3
10.089490  12.501289 13.264861  3
10.455658  14.976851 12.669089  3
10.637292  14.396117 10.996367  3
12.445192  13.515770 13.259523  3
13.773866  13.360307 10.714383  3
12.176518  12.652318 10.495008  3
13.242198  12.055374 11.769934  3
14.181055  15.009515 12.510898  3
12.808924  15.895302 13.128342  3
13.559869  15.548660 10.176010  3
13.908841  16.948349 11.167518  3
11.533028  17.472127 11.453511  3
11.063173  16.066111 10.554763  3
12.459507  18.412515 9.330571  3
13.301206  16.637304 8.011064  3
11.778660  16.975139 7.181328  3
11.892281  15.599594 8.284765  3
9.670314  17.184531 8.914199  3
10.306855  18.659645 8.168611  3
9.995201  18.614954 9.909531  3
29.154669  24.591732 4.555945  1
28.331565  25.390127 3.530377  1
29.246019  26.417724 2.855603  1
27.691369  24.435482 2.502091  1
26.779975  23.399147 3.003576  2
25.579215  23.419007 3.637482  1
24.936177  22.364544 3.649154  4
24.984291  24.716137 4.219781  1
24.335316  24.452183 5.606532  1
25.391556  23.985907 6.617711  1
23.624909  25.688287 6.179547  1
23.993960  25.160176 3.240040  2
24.194401  25.928701 2.128098  1
23.345864  25.898280 1.240498  4
25.503466  26.739064 1.972685  1
25.179198  28.152180 1.410513  1
24.300264  28.954555 2.376024  1
26.446440  28.962261 1.108046  1
26.310720  25.993713 1.007011  2
27.175312  24.961427 1.145729  1
27.485955  24.363151 0.108130  4
29.602917  25.258530 5.300373  3
29.968828  24.041296 4.070305  3
28.530557  23.870019 5.092495  3
27.588750  25.950403 4.093616  3
30.012874  25.930889 2.244301  3
29.752861  27.036423 3.604343  3
28.674416  27.092328 2.212701  3
28.551160  23.825672 2.174565  3
26.932495  22.484400 2.587795  3
25.742431  25.475208 4.341971  3
23.583513  23.657550 5.515048  3
26.136347  24.767584 6.803707  3
25.916390  23.092494 6.267260  3
24.923051  23.732376 7.575043  3
24.274141  26.570468 6.173249  3
23.318226  25.511550 7.218086  3
22.718057  25.924736 5.614105  3
23.175452  24.566284 3.134771  3
26.039945  26.839822 2.910996  3
24.627524  28.049173 0.465921  3
24.812013  29.125467 3.328750  3
23.355256  28.443118 2.581555  3
24.051762  29.931430 1.945916  3
27.081600  29.054683 1.994948  3
26.187873  29.974121 0.774838  3
27.035131  28.500521 0.309045  3
25.980000  26.043037 0.047213  3
 %endblock AtomicCoordinatesAndAtomicSpecies
************************** End of input data file *****************************

reinit: -----------------------------------------------------------------------
reinit: System Name: 
reinit: -----------------------------------------------------------------------
reinit: System Label: siesta
reinit: -----------------------------------------------------------------------

initatom: Reading input for the pseudopotentials and atomic orbitals ----------
Species number:   1 Atomic number:    6 Label: C
Species number:   2 Atomic number:    7 Label: N
Species number:   3 Atomic number:    1 Label: H
Species number:   4 Atomic number:    8 Label: O

Ground state valence configuration:   2s02  2p02
Reading pseudopotential information in formatted form from C.psf

Valence configuration for pseudopotential generation:
2s( 2.00) rc: 1.54
2p( 2.00) rc: 1.54
3d( 0.00) rc: 1.54
4f( 0.00) rc: 1.54
Ground state valence configuration:   2s02  2p03
Reading pseudopotential information in formatted form from N.psf

Valence configuration for pseudopotential generation:
2s( 2.00) rc: 1.48
2p( 3.00) rc: 1.48
3d( 0.00) rc: 1.48
4f( 0.00) rc: 1.48
Ground state valence configuration:   1s01
Reading pseudopotential information in formatted form from H.psf

Valence configuration for pseudopotential generation:
1s( 1.00) rc: 1.31
2p( 0.00) rc: 1.31
3d( 0.00) rc: 0.37
4f( 0.00) rc: 1.31
Ground state valence configuration:   2s02  2p04
Reading pseudopotential information in formatted form from O.psf

Valence configuration for pseudopotential generation:
2s( 2.00) rc: 1.47
2p( 4.00) rc: 1.47
3d( 0.00) rc: 1.47
4f( 0.00) rc: 1.47
For C, standard SIESTA heuristics set lmxkb to 3
 (one more than the basis l, including polarization orbitals).
Use PS.lmax or PS.KBprojectors blocks to override.
For N, standard SIESTA heuristics set lmxkb to 3
 (one more than the basis l, including polarization orbitals).
Use PS.lmax or PS.KBprojectors blocks to override.
For H, standard SIESTA heuristics set lmxkb to 2
 (one more than the basis l, including polarization orbitals).
Use PS.lmax or PS.KBprojectors blocks to override.
For O, standard SIESTA heuristics set lmxkb to 3
 (one more than the basis l, including polarization orbitals).
Use PS.lmax or PS.KBprojectors blocks to override.

<basis_specs>
===============================================================================
C                    Z=   6    Mass=  12.010        Charge= 0.17977+309
Lmxo=1 Lmxkb= 3    BasisType=split      Semic=F
L=0  Nsemic=0  Cnfigmx=2
          i=1  nzeta=2  polorb=0  (2s)
            splnorm:   0.15000    
               vcte:    0.0000    
               rinn:    0.0000    
               qcoe:    0.0000    
               qyuk:    0.0000    
               qwid:   0.10000E-01
                rcs:    0.0000      0.0000    
            lambdas:    1.0000      1.0000    
L=1  Nsemic=0  Cnfigmx=2
          i=1  nzeta=2  polorb=1  (2p)
            splnorm:   0.15000    
               vcte:    0.0000    
               rinn:    0.0000    
               qcoe:    0.0000    
               qyuk:    0.0000    
               qwid:   0.10000E-01
                rcs:    0.0000      0.0000    
            lambdas:    1.0000      1.0000    
-------------------------------------------------------------------------------
L=0  Nkbl=1  erefs: 0.17977+309
L=1  Nkbl=1  erefs: 0.17977+309
L=2  Nkbl=1  erefs: 0.17977+309
L=3  Nkbl=1  erefs: 0.17977+309
===============================================================================
</basis_specs>

atom: Called for C                     (Z =   6)

read_vps: Pseudopotential generation method:
read_vps: ATM3      Troullier-Martins                       
Valence charge for ps generation:    4.00000

read_vps: Pseudopotential includes a core correction:
read_vps: Pseudo-core for xc-correction

xc_check: Exchange-correlation functional:
xc_check: Ceperley-Alder
xc_check: WARNING: Pseudopotential generated with GGA PBE functional
V l=0 = -2*Zval/r beyond r=  1.5227
V l=1 = -2*Zval/r beyond r=  1.5227
V l=2 = -2*Zval/r beyond r=  1.5227
V l=3 = -2*Zval/r beyond r=  1.5038
All V_l potentials equal beyond r=  1.5227
This should be close to max(r_c) in ps generation
All pots = -2*Zval/r beyond r=  1.5227

VLOCAL1: 99.0% of the norm of Vloc inside     18.722 Ry
VLOCAL1: 99.9% of the norm of Vloc inside     42.668 Ry
atom: Maximum radius for 4*pi*r*r*local-pseudopot. charge    1.83678
atom: Maximum radius for r*vlocal+2*Zval:    1.58088

KBgen: Kleinman-Bylander projectors: 
GHOST: No ghost state for L =  0
   l= 0   rc=  1.704034   el= -0.998584   Ekb=  5.327875   kbcos=  0.314897
GHOST: No ghost state for L =  1
   l= 1   rc=  1.704034   el= -0.383998   Ekb= -3.785479   kbcos= -0.363289
GHOST: No ghost state for L =  2
   l= 2   rc=  1.791422   el=  0.002326   Ekb= -0.971263   kbcos= -0.009325
GHOST: No ghost state for L =  3
   l= 3   rc=  1.859892   el=  0.003420   Ekb= -0.399672   kbcos= -0.001232

KBgen: Total number of  Kleinman-Bylander projectors:   16
atom: -------------------------------------------------------------------------

atom: SANKEY-TYPE ORBITALS:
atom: Selected multiple-zeta basis: split     

SPLIT: Orbitals with angular momentum L= 0

SPLIT: Basis orbitals for state 2s

SPLIT: PAO cut-off radius determined from an
SPLIT: energy shift=  0.020000 Ry

   izeta = 1
                 lambda =    1.000000
                     rc =    4.191849
                 energy =   -0.980459
                kinetic =    0.881507
    potential(screened) =   -1.861966
       potential(ionic) =   -5.449625

   izeta = 2
                 rmatch =    3.431921
              splitnorm =    0.150000
                 energy =   -0.849396
                kinetic =    1.300036
    potential(screened) =   -2.149433
       potential(ionic) =   -5.962781

SPLIT: Orbitals with angular momentum L= 1

SPLIT: Basis orbitals for state 2p

SPLIT: PAO cut-off radius determined from an
SPLIT: energy shift=  0.020000 Ry

   izeta = 1
                 lambda =    1.000000
                     rc =    4.993604
                 energy =   -0.366127
                kinetic =    2.463190
    potential(screened) =   -2.829316
       potential(ionic) =   -6.291180

   izeta = 2
                 rmatch =    3.518811
              splitnorm =    0.150000
                 energy =   -0.204163
                kinetic =    3.723883
    potential(screened) =   -3.928045
       potential(ionic) =   -7.766545

POLgen: Perturbative polarization orbital with L=  2

POLgen: Polarization orbital for state 2p

   izeta = 1
                     rc =    4.993604
                 energy =    1.232619
                kinetic =    2.527283
    potential(screened) =   -1.294664
       potential(ionic) =   -4.203101
atom: Total number of Sankey-type orbitals: 13

atm_pop: Valence configuration (for local Pseudopot. screening):
 2s( 2.00)                                                            
 2p( 2.00)                                                            
Vna: chval, zval:    4.00000   4.00000

Vna:  Cut-off radius for the neutral-atom potential:   4.993604
comcore: Pseudo-core radius Rcore=  1.791422

atom: _________________________________________________________________________

<basis_specs>
===============================================================================
N                    Z=   7    Mass=  14.010        Charge= 0.17977+309
Lmxo=1 Lmxkb= 3    BasisType=split      Semic=F
L=0  Nsemic=0  Cnfigmx=2
          i=1  nzeta=2  polorb=0  (2s)
            splnorm:   0.15000    
               vcte:    0.0000    
               rinn:    0.0000    
               qcoe:    0.0000    
               qyuk:    0.0000    
               qwid:   0.10000E-01
                rcs:    0.0000      0.0000    
            lambdas:    1.0000      1.0000    
L=1  Nsemic=0  Cnfigmx=2
          i=1  nzeta=2  polorb=1  (2p)
            splnorm:   0.15000    
               vcte:    0.0000    
               rinn:    0.0000    
               qcoe:    0.0000    
               qyuk:    0.0000    
               qwid:   0.10000E-01
                rcs:    0.0000      0.0000    
            lambdas:    1.0000      1.0000    
-------------------------------------------------------------------------------
L=0  Nkbl=1  erefs: 0.17977+309
L=1  Nkbl=1  erefs: 0.17977+309
L=2  Nkbl=1  erefs: 0.17977+309
L=3  Nkbl=1  erefs: 0.17977+309
===============================================================================
</basis_specs>

atom: Called for N                     (Z =   7)

read_vps: Pseudopotential generation method:
read_vps: ATM3      Troullier-Martins                       
Valence charge for ps generation:    5.00000

read_vps: Pseudopotential includes a core correction:
read_vps: Pseudo-core for xc-correction

xc_check: Exchange-correlation functional:
xc_check: Ceperley-Alder
xc_check: WARNING: Pseudopotential generated with GGA PBE functional
V l=0 = -2*Zval/r beyond r=  1.4606
V l=1 = -2*Zval/r beyond r=  1.4606
V l=2 = -2*Zval/r beyond r=  1.4606
V l=3 = -2*Zval/r beyond r=  1.4606
All V_l potentials equal beyond r=  1.4606
This should be close to max(r_c) in ps generation
All pots = -2*Zval/r beyond r=  1.4606

VLOCAL1: 99.0% of the norm of Vloc inside     20.347 Ry
VLOCAL1: 99.9% of the norm of Vloc inside     46.372 Ry
atom: Maximum radius for 4*pi*r*r*local-pseudopot. charge    1.76189
atom: Maximum radius for r*vlocal+2*Zval:    1.53550

KBgen: Kleinman-Bylander projectors: 
GHOST: No ghost state for L =  0
   l= 0   rc=  1.634559   el= -1.348537   Ekb=  5.297520   kbcos=  0.333054
GHOST: No ghost state for L =  1
   l= 1   rc=  1.614250   el= -0.512415   Ekb= -5.262296   kbcos= -0.428933
GHOST: No ghost state for L =  2
   l= 2   rc=  1.718383   el=  0.002346   Ekb= -1.271998   kbcos= -0.007619
GHOST: No ghost state for L =  3
   l= 3   rc=  1.761893   el=  0.003449   Ekb= -0.494630   kbcos= -0.001017

KBgen: Total number of  Kleinman-Bylander projectors:   16
atom: -------------------------------------------------------------------------

atom: SANKEY-TYPE ORBITALS:
atom: Selected multiple-zeta basis: split     

SPLIT: Orbitals with angular momentum L= 0

SPLIT: Basis orbitals for state 2s

SPLIT: PAO cut-off radius determined from an
SPLIT: energy shift=  0.020000 Ry

   izeta = 1
                 lambda =    1.000000
                     rc =    3.683980
                 energy =   -1.330014
                kinetic =    1.203086
    potential(screened) =   -2.533100
       potential(ionic) =   -8.093205

   izeta = 2
                 rmatch =    2.905100
              splitnorm =    0.150000
                 energy =   -1.134717
                kinetic =    1.810562
    potential(screened) =   -2.945280
       potential(ionic) =   -8.899916

SPLIT: Orbitals with angular momentum L= 1

SPLIT: Basis orbitals for state 2p

SPLIT: PAO cut-off radius determined from an
SPLIT: energy shift=  0.020000 Ry

   izeta = 1
                 lambda =    1.000000
                     rc =    4.388595
                 energy =   -0.493943
                kinetic =    3.501321
    potential(screened) =   -3.995264
       potential(ionic) =   -9.374806

   izeta = 2
                 rmatch =    2.978652
              splitnorm =    0.150000
                 energy =   -0.289183
                kinetic =    5.180785
    potential(screened) =   -5.469968
       potential(ionic) =  -11.438899

POLgen: Perturbative polarization orbital with L=  2

POLgen: Polarization orbital for state 2p

   izeta = 1
                     rc =    4.388595
                 energy =    1.759924
                kinetic =    3.542120
    potential(screened) =   -1.782196
       potential(ionic) =   -6.226799
atom: Total number of Sankey-type orbitals: 13

atm_pop: Valence configuration (for local Pseudopot. screening):
 2s( 2.00)                                                            
 2p( 3.00)                                                            
Vna: chval, zval:    5.00000   5.00000

Vna:  Cut-off radius for the neutral-atom potential:   4.388595
comcore: Pseudo-core radius Rcore=  1.554824

atom: _________________________________________________________________________

<basis_specs>
===============================================================================
H                    Z=   1    Mass=  1.0100        Charge= 0.17977+309
Lmxo=0 Lmxkb= 2    BasisType=split      Semic=F
L=0  Nsemic=0  Cnfigmx=1
          i=1  nzeta=2  polorb=1  (1s)
            splnorm:   0.15000    
               vcte:    0.0000    
               rinn:    0.0000    
               qcoe:    0.0000    
               qyuk:    0.0000    
               qwid:   0.10000E-01
                rcs:    0.0000      0.0000    
            lambdas:    1.0000      1.0000    
-------------------------------------------------------------------------------
L=0  Nkbl=1  erefs: 0.17977+309
L=1  Nkbl=1  erefs: 0.17977+309
L=2  Nkbl=1  erefs: 0.17977+309
===============================================================================
</basis_specs>

atom: Called for H                     (Z =   1)

read_vps: Pseudopotential generation method:
read_vps: ATM3      Troullier-Martins                       
Valence charge for ps generation:    1.00000

xc_check: Exchange-correlation functional:
xc_check: Ceperley-Alder
xc_check: WARNING: Pseudopotential generated with GGA PBE functional
V l=0 = -2*Zval/r beyond r=  1.2977
V l=1 = -2*Zval/r beyond r=  1.2815
V l=2 = -2*Zval/r beyond r=  1.2656
All V_l potentials equal beyond r=  1.2977
This should be close to max(r_c) in ps generation
All pots = -2*Zval/r beyond r=  1.2977

VLOCAL1: 99.0% of the norm of Vloc inside     25.776 Ry
VLOCAL1: 99.9% of the norm of Vloc inside     58.745 Ry
atom: Maximum radius for 4*pi*r*r*local-pseudopot. charge    1.52711
atom: Maximum radius for r*vlocal+2*Zval:    1.28155

KBgen: Kleinman-Bylander projectors: 
GHOST: No ghost state for L =  0
   l= 0   rc=  1.434438   el= -0.456815   Ekb= -1.960338   kbcos= -0.349997
GHOST: No ghost state for L =  1
   l= 1   rc=  1.508111   el=  0.001431   Ekb= -0.423993   kbcos= -0.025386
GHOST: No ghost state for L =  2
   l= 2   rc=  1.546352   el=  0.002365   Ekb= -0.376562   kbcos= -0.002012

KBgen: Total number of  Kleinman-Bylander projectors:    9
atom: -------------------------------------------------------------------------

atom: SANKEY-TYPE ORBITALS:
atom: Selected multiple-zeta basis: split     

SPLIT: Orbitals with angular momentum L= 0

SPLIT: Basis orbitals for state 1s

SPLIT: PAO cut-off radius determined from an
SPLIT: energy shift=  0.020000 Ry

   izeta = 1
                 lambda =    1.000000
                     rc =    4.828263
                 energy =   -0.438372
                kinetic =    0.921576
    potential(screened) =   -1.359947
       potential(ionic) =   -1.906664

   izeta = 2
                 rmatch =    3.903467
              splitnorm =    0.150000
                 energy =   -0.330751
                kinetic =    1.475177
    potential(screened) =   -1.805928
       potential(ionic) =   -2.389550

POLgen: Perturbative polarization orbital with L=  1

POLgen: Polarization orbital for state 1s

   izeta = 1
                     rc =    4.828263
                 energy =    0.711580
                kinetic =    1.391494
    potential(screened) =   -0.679914
       potential(ionic) =   -1.168115
atom: Total number of Sankey-type orbitals:  5

atm_pop: Valence configuration (for local Pseudopot. screening):
 1s( 1.00)                                                            
Vna: chval, zval:    1.00000   1.00000

Vna:  Cut-off radius for the neutral-atom potential:   4.828263

atom: _________________________________________________________________________

<basis_specs>
===============================================================================
O                    Z=   8    Mass=  16.000        Charge= 0.17977+309
Lmxo=1 Lmxkb= 3    BasisType=split      Semic=F
L=0  Nsemic=0  Cnfigmx=2
          i=1  nzeta=2  polorb=0  (2s)
            splnorm:   0.15000    
               vcte:    0.0000    
               rinn:    0.0000    
               qcoe:    0.0000    
               qyuk:    0.0000    
               qwid:   0.10000E-01
                rcs:    0.0000      0.0000    
            lambdas:    1.0000      1.0000    
L=1  Nsemic=0  Cnfigmx=2
          i=1  nzeta=2  polorb=1  (2p)
            splnorm:   0.15000    
               vcte:    0.0000    
               rinn:    0.0000    
               qcoe:    0.0000    
               qyuk:    0.0000    
               qwid:   0.10000E-01
                rcs:    0.0000      0.0000    
            lambdas:    1.0000      1.0000    
-------------------------------------------------------------------------------
L=0  Nkbl=1  erefs: 0.17977+309
L=1  Nkbl=1  erefs: 0.17977+309
L=2  Nkbl=1  erefs: 0.17977+309
L=3  Nkbl=1  erefs: 0.17977+309
===============================================================================
</basis_specs>

atom: Called for O                     (Z =   8)

read_vps: Pseudopotential generation method:
read_vps: ATM3      Troullier-Martins                       
Valence charge for ps generation:    6.00000

read_vps: Pseudopotential includes a core correction:
read_vps: Pseudo-core for xc-correction

xc_check: Exchange-correlation functional:
xc_check: Ceperley-Alder
xc_check: WARNING: Pseudopotential generated with GGA PBE functional
V l=0 = -2*Zval/r beyond r=  1.4482
V l=1 = -2*Zval/r beyond r=  1.4482
V l=2 = -2*Zval/r beyond r=  1.4482
V l=3 = -2*Zval/r beyond r=  1.4482
All V_l potentials equal beyond r=  1.4482
This should be close to max(r_c) in ps generation
All pots = -2*Zval/r beyond r=  1.4482

VLOCAL1: 99.0% of the norm of Vloc inside     20.696 Ry
VLOCAL1: 99.9% of the norm of Vloc inside     47.167 Ry
atom: Maximum radius for 4*pi*r*r*local-pseudopot. charge    1.74697
atom: Maximum radius for r*vlocal+2*Zval:    1.52250

KBgen: Kleinman-Bylander projectors: 
GHOST: No ghost state for L =  0
   l= 0   rc=  1.620715   el= -1.738829   Ekb=  4.895054   kbcos=  0.290645
GHOST: No ghost state for L =  1
   l= 1   rc=  1.600578   el= -0.650915   Ekb= -6.916539   kbcos= -0.494696
GHOST: No ghost state for L =  2
   l= 2   rc=  1.703827   el=  0.002386   Ekb= -1.538961   kbcos= -0.006789
GHOST: No ghost state for L =  3
   l= 3   rc=  1.746967   el=  0.003508   Ekb= -0.568530   kbcos= -0.000966

KBgen: Total number of  Kleinman-Bylander projectors:   16
atom: -------------------------------------------------------------------------

atom: SANKEY-TYPE ORBITALS:
atom: Selected multiple-zeta basis: split     

SPLIT: Orbitals with angular momentum L= 0

SPLIT: Basis orbitals for state 2s

SPLIT: PAO cut-off radius determined from an
SPLIT: energy shift=  0.020000 Ry

   izeta = 1
                 lambda =    1.000000
                     rc =    3.305093
                 energy =   -1.720120
                kinetic =    1.583509
    potential(screened) =   -3.303629
       potential(ionic) =  -11.248859

   izeta = 2
                 rmatch =    2.510382
              splitnorm =    0.150000
                 energy =   -1.472890
                kinetic =    2.379100
    potential(screened) =   -3.851990
       potential(ionic) =  -12.389687

SPLIT: Orbitals with angular momentum L= 1

SPLIT: Basis orbitals for state 2p

SPLIT: PAO cut-off radius determined from an
SPLIT: energy shift=  0.020000 Ry

   izeta = 1
                 lambda =    1.000000
                     rc =    3.937239
                 energy =   -0.631844
                kinetic =    4.616405
    potential(screened) =   -5.248250
       potential(ionic) =  -12.927368

   izeta = 2
                 rmatch =    2.573941
              splitnorm =    0.150000
                 energy =   -0.344812
                kinetic =    6.889580
    potential(screened) =   -7.234392
       potential(ionic) =  -15.793960

POLgen: Perturbative polarization orbital with L=  2

POLgen: Polarization orbital for state 2p

   izeta = 1
                     rc =    3.937239
                 energy =    2.368129
                kinetic =    4.725445
    potential(screened) =   -2.357315
       potential(ionic) =   -8.649185
atom: Total number of Sankey-type orbitals: 13

atm_pop: Valence configuration (for local Pseudopot. screening):
 2s( 2.00)                                                            
 2p( 4.00)                                                            
Vna: chval, zval:    6.00000   6.00000

Vna:  Cut-off radius for the neutral-atom potential:   3.937239
comcore: Pseudo-core radius Rcore=  1.377587

atom: _________________________________________________________________________

prinput: Basis input ----------------------------------------------------------

PAO.BasisType split     

%block ChemicalSpeciesLabel
    1    6 C                       # Species index, atomic number, species label
    2    7 N                       # Species index, atomic number, species label
    3    1 H                       # Species index, atomic number, species label
    4    8 O                       # Species index, atomic number, species label
%endblock ChemicalSpeciesLabel

%block PAO.Basis                 # Define Basis set
C                     2                    # Species label, number of l-shells
 n=2   0   2                         # n, l, Nzeta 
   4.192      3.432   
   1.000      1.000   
 n=2   1   2 P   1                   # n, l, Nzeta, Polarization, NzetaPol
   4.994      3.519   
   1.000      1.000   
N                     2                    # Species label, number of l-shells
 n=2   0   2                         # n, l, Nzeta 
   3.684      2.905   
   1.000      1.000   
 n=2   1   2 P   1                   # n, l, Nzeta, Polarization, NzetaPol
   4.389      2.979   
   1.000      1.000   
H                     1                    # Species label, number of l-shells
 n=1   0   2 P   1                   # n, l, Nzeta, Polarization, NzetaPol
   4.828      3.903   
   1.000      1.000   
O                     2                    # Species label, number of l-shells
 n=2   0   2                         # n, l, Nzeta 
   3.305      2.510   
   1.000      1.000   
 n=2   1   2 P   1                   # n, l, Nzeta, Polarization, NzetaPol
   3.937      2.574   
   1.000      1.000   
%endblock PAO.Basis

prinput: ----------------------------------------------------------------------

coor:   Atomic-coordinates input format  =     Cartesian coordinates
coor:                                          (in Angstroms)

siesta: Atomic coordinates (Bohr) and species
siesta:     27.07246  29.85541   8.27429  1        1
siesta:     29.22941  31.09569   6.92138  1        2
siesta:     29.51000  33.69973   6.94020  1        3
siesta:     31.68550  34.77498   5.89345  1        4
siesta:     32.05200  37.40364   6.00960  1        5
siesta:     34.30696  38.50765   5.15223  1        6
siesta:     34.80836  41.09296   5.35670  1        7
siesta:     36.99327  42.20823   4.62873  2        8
siesta:     38.76443  40.68349   3.62231  1        9
siesta:     38.44998  38.10761   3.28141  1       10
siesta:     36.18530  36.98230   4.06901  1       11
siesta:     35.76755  34.36293   3.85786  1       12
siesta:     33.53661  33.20337   4.79200  1       13
siesta:     33.02885  30.57947   4.75634  1       14
siesta:     34.82112  28.65209   3.70021  1       15
siesta:     30.93169  29.54850   5.82488  2       16
siesta:     25.70336  31.23888   8.97345  3       17
siesta:     27.80248  28.79823   9.89701  3       18
siesta:     26.08891  28.54870   7.01073  3       19
siesta:     28.08775  34.87551   7.83725  3       20
siesta:     30.60579  38.59778   6.84505  3       21
siesta:     33.43313  42.38083   6.17290  3       22
siesta:     40.51557  41.61080   3.08306  3       23
siesta:     39.96382  36.99833   2.45385  3       24
siesta:     37.23988  33.21962   3.00390  3       25
siesta:     36.22563  29.43866   2.41105  3       26
siesta:     33.76226  27.23207   2.62737  3       27
siesta:     35.80478  27.69892   5.25120  3       28
siesta:      7.35591  34.04971  25.55224  1       29
siesta:      8.25250  31.68338  24.32340  1       30
siesta:     10.64706  31.07571  23.74142  1       31
siesta:     12.88424  32.79951  24.19183  1       32
siesta:     11.29161  28.61943  22.47464  1       33
siesta:     10.15793  26.16802  23.53702  1       34
siesta:     11.28174  23.76007  22.34371  1       35
siesta:     14.03331  23.01166  23.07654  1       36
siesta:     14.79191  20.67016  21.55412  1       37
siesta:     16.00330  25.13154  22.75913  1       38
siesta:     18.79017  24.39479  23.16693  1       39
siesta:     20.43431  26.75168  22.75900  1       40
siesta:     23.29263  26.37057  23.16144  1       41
siesta:     24.39200  24.48909  21.25669  1       42
siesta:     24.83160  28.87414  23.21042  1       43
siesta:     24.89628  30.51366  20.79774  1       44
siesta:     22.38182  31.76065  20.10749  1       45
siesta:     22.28968  33.14776  17.56037  1       46
siesta:     23.07886  31.43886  15.36225  1       47
siesta:     19.57604  34.07646  17.12003  1       48
siesta:      5.79776  33.61749  26.83821  3       49
siesta:      6.67741  35.36115  24.10743  3       50
siesta:      8.82909  34.96950  26.65890  3       51
siesta:      6.75577  30.33684  23.85344  3       52
siesta:     12.35939  34.79712  24.19630  3       53
siesta:     14.30954  32.58312  22.70749  3       54
siesta:     13.77711  32.34670  26.00798  3       55
siesta:     13.31874  28.52978  22.62428  3       56
siesta:     10.92717  28.75226  20.43816  3       57
siesta:      8.12031  26.16087  23.13749  3       58
siesta:     10.35162  26.07786  25.59690  3       59
siesta:     11.08612  23.87418  20.28311  3       60
siesta:     10.05744  22.18021  22.92528  3       61
siesta:     14.00547  22.47537  25.07985  3       62
siesta:     15.02066  21.11994  19.55113  3       63
siesta:     13.36210  19.17778  21.72502  3       64
siesta:     16.57089  19.88209  22.25236  3       65
siesta:     15.65653  26.52269  24.25109  3       66
siesta:     15.80786  26.00237  20.90354  3       67
siesta:     19.33509  22.94910  21.78671  3       68
siesta:     19.06638  23.62402  25.06696  3       69
siesta:     19.75834  28.30216  23.94112  3       70
siesta:     20.10158  27.20473  20.78013  3       71
siesta:     23.51801  25.54111  25.05688  3       72
siesta:     26.02884  25.24733  20.24726  3       73
siesta:     23.01029  23.90943  19.83270  3       74
siesta:     25.02414  22.78136  22.24196  3       75
siesta:     26.79832  28.36388  23.64218  3       76
siesta:     24.20537  30.03778  24.80898  3       77
siesta:     25.62445  29.38272  19.22988  3       78
siesta:     26.28391  32.02775  21.10356  3       79
siesta:     21.79427  33.01755  21.64401  3       80
siesta:     20.90638  30.36056  19.94562  3       81
siesta:     23.54507  34.79462  17.63223  3       82
siesta:     25.13565  31.43996  15.13872  3       83
siesta:     22.25845  32.07838  13.57075  3       84
siesta:     22.47316  29.47897  15.65594  3       85
siesta:     18.27425  32.47407  16.84540  3       86
siesta:     19.47714  35.26163  15.43644  3       87
siesta:     18.88820  35.17718  18.72631  3       88
siesta:     55.09436  46.47166   8.60949  1       89
siesta:     53.53892  47.98041   6.67145  1       90
siesta:     55.26699  49.92228   5.39631  1       91
siesta:     52.32912  46.17639   4.72827  1       92
siesta:     50.60684  44.21800   5.67594  2       93
siesta:     48.33773  44.25553   6.87385  1       94
siesta:     47.12256  42.26288   6.89590  4       95
siesta:     47.21349  46.70675   7.97423  1       96
siesta:     45.98710  46.20795  10.59481  1       97
siesta:     47.98311  45.32681  12.50567  1       98
siesta:     44.64463  48.54385  11.67766  1       99
siesta:     45.34203  47.54586   6.12279  2      100
siesta:     45.72081  48.99816   4.02152  1      101
siesta:     44.11731  48.94068   2.34420  4      102
siesta:     48.19459  50.52953   3.72784  1      103
siesta:     47.58181  53.19993   2.66548  1      104
siesta:     45.92086  54.71620   4.49004  1      105
siesta:     49.97655  54.73076   2.09390  1      106
siesta:     49.72007  49.12102   1.90298  2      107
siesta:     51.35392  47.17028   2.16511  1      108
siesta:     51.94095  46.03970   0.20434  4      109
siesta:     55.94143  47.73172  10.01626  3      110
siesta:     56.63290  45.43148   7.69176  3      111
siesta:     53.91496  45.10782   9.62342  3      112
siesta:     52.13520  49.03917   7.73582  3      113
siesta:     56.71613  49.00230   4.24112  3      114
siesta:     56.22478  51.09146   6.81122  3      115
siesta:     54.18681  51.19710   4.18140  3      116
siesta:     53.95389  45.02401   4.10933  3      117
siesta:     50.89506  42.48938   4.89023  3      118
siesta:     48.64616  48.14119   8.20514  3      119
siesta:     44.56640  44.70631  10.42193  3      120
siesta:     49.39056  46.80397  12.85715  3      121
siesta:     48.97490  43.63851  11.84341  3      122
siesta:     47.09776  44.84771  14.31476  3      123
siesta:     45.87150  50.21093  11.66575  3      124
siesta:     44.06508  48.20986  13.64021  3      125
siesta:     42.93092  48.99067  10.60913  3      126
siesta:     43.79527  46.42357   5.92386  3      127
siesta:     49.20838  50.71993   5.50099  3      128
siesta:     46.53929  53.00528   0.88046  3      129
siesta:     46.88793  55.03918   6.29043  3      130
siesta:     44.13506  53.74972   4.87843  3      131
siesta:     45.45126  56.56223   3.67725  3      132
siesta:     51.17683  54.90542   3.76991  3      133
siesta:     49.48793  56.64290   1.46423  3      134
siesta:     51.08901  53.85820   0.58401  3      135
siesta:     49.09510  49.21423   0.08922  3      136

siesta: System type = molecule  

initatomlists: Number of atoms, orbitals, and projectors:    136  1136  1623

coxmol: Writing XMOL coordinates into file siesta.xyz                                                          

siesta: ******************** Simulation parameters ****************************
siesta:
siesta: The following are some of the parameters of the simulation.
siesta: A complete list of the parameters used, including default values,
siesta: can be found in file out.fdf
siesta:
redata: Spin configuration                          = collinear
redata: Number of spin components                   = 2
redata: Time-Reversal Symmetry                      = T
redata: Spin spiral                                 = F
redata: Long output                                 =   T
redata: Number of Atomic Species                    =        4
redata: Charge density info will appear in .RHO file
redata: Write Mulliken Pop.                         = Atomic and Orbital charges
redata: Matel table size (NRTAB)                    =     1024
redata: Mesh Cutoff                                 =   100.0000 Ry
redata: Net charge of the system                    =     0.0000 |e|
redata: Min. number of SCF Iter                     =        0
redata: Max. number of SCF Iter                     =      100
redata: SCF convergence failure will abort job
redata: SCF mix quantity                            = Hamiltonian
redata: Mix DM or H after convergence               =   F
redata: Recompute H after scf cycle                 =   F
redata: Mix DM in first SCF step                    =   T
redata: Write Pulay info on disk                    =   F
redata: New DM Occupancy tolerance                  = 0.000000000001
redata: No kicks to SCF
redata: DM Mixing Weight for Kicks                  =     0.5000
redata: Require Harris convergence for SCF          =   F
redata: Harris energy tolerance for SCF             =     0.000100 eV
redata: Require DM convergence for SCF              =   T
redata: DM tolerance for SCF                        =     0.001000
redata: Require EDM convergence for SCF             =   F
redata: EDM tolerance for SCF                       =     0.001000 eV
redata: Require H convergence for SCF               =   T
redata: Hamiltonian tolerance for SCF               =     0.001000 eV
redata: Require (free) Energy convergence for SCF   =   F
redata: (free) Energy tolerance for SCF             =     0.000100 eV
redata: Antiferro initial spin density              =   F
redata: Using Saved Data (generic)                  =   F
redata: Use continuation files for DM               =   F
redata: Neglect nonoverlap interactions             =   F
redata: Method of Calculation                       = Diagonalization
redata: Electronic Temperature                      =   299.9869 K
redata: Fix the spin of the system                  =   F
redata: Max. number of TDED Iter                    =        1
redata: Number of TDED substeps                     =        3
redata: Dynamics option                             = Nose thermostat MD run
redata: Initial MD time step                        =        1
redata:   Final MD time step                        =       10
redata: Length of MD time step                      =     1.0000 fs
redata: Initial Temperature of MD run               =   300.0000 K
redata: Perform a MD quench                         =   F
redata: Nose mass                                   =  1360.5800 eV/fs**2
redata: Target Temperature                          =   300.0000 Kelvin
mix.SCF: Pulay mixing                            = Pulay
mix.SCF:    Variant                              = stable
mix.SCF:    History steps                        = 3
mix.SCF:    Linear mixing weight                 =     0.250000
mix.SCF:    Mixing weight                        =     0.250000
mix.SCF:    SVD condition                        = 0.1000E-07
mix.SCF: Spin-component mixing                   all
redata: ***********************************************************************

%block SCF.Mixers
  Pulay
%endblock SCF.Mixers

%block SCF.Mixer.Pulay
  # Mixing method
  method pulay
  variant stable

  # Mixing options
  weight 0.2500
  weight.linear 0.2500
  history 3
%endblock SCF.Mixer.Pulay

Size of DM history Fstack: 1
Total number of electrons:   318.000000
Total ionic charge:   318.000000
 Kpoints in:            1 . Kpoints trimmed:            1

siesta: k-point coordinates (Bohr**-1) and weights:
siesta:          1  0.000000E+00  0.000000E+00  0.000000E+00   0.100000E+01

siesta: k-grid: Number of k-points =         1
siesta: k-points from Monkhorst-Pack grid
siesta: k-cutoff (effective) =    11.077 Ang
siesta: k-point supercell and displacements
siesta: k-grid:    1   0   0      0.000
siesta: k-grid:    0   1   0      0.000
siesta: k-grid:    0   0   1      0.000
 Kpoints in:            1 . Kpoints trimmed:            1

siesta: PDOS k-point coordinates (Bohr**-1) and weights:
siesta:          1  0.000000E+00  0.000000E+00  0.000000E+00   0.100000E+01

siesta: PDOS k-grid: Number of k-points =         1
siesta: PDOS k-points from Monkhorst-Pack grid
siesta: PDOS k-cutoff (effective) =     0.000 Ang
siesta: PDOS k-point supercell and displacements
siesta: k-grid:    1   0   0      0.000
siesta: k-grid:    0   1   0      0.000
siesta: k-grid:    0   0   1      0.000

diag: Algorithm                                     = D&C
diag: Used triangular part                          = Lower
diag: Absolute tolerance                            =  0.100E-15
diag: Orthogonalization factor                      =  0.100E-05
diag: Memory factor                                 =  1.0000
Using LatticeConstant from fdf file for BandLinesScale:    1.889727 Bohr
Beware any cell changes by the end of the run
Using LatticeConstant from fdf file for BandLinesScale:    1.889727 Bohr
Beware any cell changes by the end of the run


ts: **************************************************************
ts: Save H and S matrices                           =    F
ts: Save DM and EDM matrices                        =    F
ts: Only save the overlap matrix S                  =    F
ts: **************************************************************

************************ Begin: TS CHECKS AND WARNINGS ************************
************************ End: TS CHECKS AND WARNINGS **************************


                     ====================================
                        Begin MD step =      1
                     ====================================

outcoor: Atomic coordinates (Ang):                          
   14.32612400   15.79879400    4.37856200   1       1  C
   15.46753100   16.45512600    3.66263700   1       2  C
   15.61601100   17.83312400    3.67259400   1       3  C
   16.76723800   18.40211800    3.11867600   1       4  C
   16.96118100   19.79314500    3.18014200   1       5  C
   18.15445600   20.37736200    2.72644100   1       6  C
   18.41978300   21.74544800    2.83464300   1       7  C
   19.57599000   22.33562400    2.44941500   2       8  N
   20.51324600   21.52876700    1.91684400   1       9  C
   20.34684700   20.16567200    1.73644800   1      10  C
   19.14843000   19.57018500    2.15322900   1      11  C
   18.92736400   18.18407200    2.04148900   1      12  C
   17.74680300   17.57046100    2.53581700   1      13  C
   17.47810600   16.18195400    2.51694800   1      14  C
   18.42653600   15.16202800    1.95806400   1      15  C
   16.36834100   15.63638800    3.08239100   2      16  N
   13.60162900   16.53089800    4.74854400   3      17  H
   14.71243300   15.23936300    5.23727000   3      18  H
   13.80565000   15.10731400    3.70991500   3      19  H
   14.86339200   18.45532000    4.14729200   3      20  H
   16.19588100   20.42505500    3.62224100   3      21  H
   17.69204200   22.42696100    3.26655600   3      22  H
   21.43990800   22.01947800    1.63148600   3      23  H
   21.14793500   19.57866700    1.29852200   3      24  H
   19.70648800   17.57905900    1.58959300   3      25  H
   19.16977200   15.57826400    1.27587400   3      26  H
   17.86621400   14.41058300    1.39034200   3      27  H
   18.94706700   14.65763300    2.77881500   3      28  H
    3.89257900   18.01832300   13.52165800   1      29  C
    4.36703500   16.76611500   12.87138300   1      30  C
    5.63417800   16.44455300   12.56341500   1      31  C
    6.81804600   17.35674700   12.80175900   1      32  C
    5.97526000   15.14474500   11.89306200   1      33  C
    5.37534100   13.84751300   12.45524700   1      34  C
    5.97003500   12.57328100   11.82377600   1      35  C
    7.42610700   12.17724200   12.21157400   1      36  C
    7.82753900   10.93817100   11.40594700   1      37  C
    8.46858000   13.29903100   12.04360800   1      38  C
    9.94332400   12.90916000   12.25940600   1      39  C
   10.81336900   14.15637300   12.04354000   1      40  C
   12.32592300   13.95469900   12.25650000   1      41  C
   12.90768700   12.95906200   11.24855300   1      42  C
   13.14031400   15.27952900   12.28242200   1      43  C
   13.17453700   16.14712500   11.00568800   1      44  C
   11.84394200   16.80700300   10.64042100   1      45  C
   11.79518500   17.54103400    9.29254400   1      46  C
   12.21280100   16.63671900    8.12934900   1      47  C
   10.35919200   18.03248100    9.05952700   1      48  C
    3.06804000   17.78960000   14.20216100   3      49  H
    3.53353000   18.71230500   12.75709500   3      50  H
    4.67215100   18.50505500   14.10727500   3      51  H
    3.57500000   16.05356000   12.62269000   3      52  H
    6.54030500   18.41383800   12.80412300   3      53  H
    7.57227700   17.24223700   12.01628300   3      54  H
    7.29052900   17.11713000   13.76282700   3      55  H
    7.04797300   15.09730100   11.97224800   3      56  H
    5.78240500   15.21503700   10.81540200   3      57  H
    4.29708000   13.84372900   12.24382900   3      58  H
    5.47783800   13.79980400   13.54529000   3      59  H
    5.86651800   12.63366900   10.73335600   3      60  H
    5.32216600   11.73725800   12.13153200   3      61  H
    7.41137000   11.89345000   13.27168100   3      62  H
    7.94858600   11.17618900   10.34600800   3      63  H
    7.07091800   10.14843900   11.49638000   3      64  H
    8.76893600   10.52114700   11.77543800   3      65  H
    8.28507300   14.03519700   12.83312000   3      66  H
    8.36515800   13.75985600   11.06167400   3      67  H
   10.23168500   12.14413600   11.52902500   3      68  H
   10.08949000   12.50128900   13.26486100   3      69  H
   10.45565800   14.97685100   12.66908900   3      70  H
   10.63729200   14.39611700   10.99636700   3      71  H
   12.44519200   13.51577000   13.25952300   3      72  H
   13.77386600   13.36030700   10.71438300   3      73  H
   12.17651800   12.65231800   10.49500800   3      74  H
   13.24219800   12.05537400   11.76993400   3      75  H
   14.18105500   15.00951500   12.51089800   3      76  H
   12.80892400   15.89530200   13.12834200   3      77  H
   13.55986900   15.54866000   10.17601000   3      78  H
   13.90884100   16.94834900   11.16751800   3      79  H
   11.53302800   17.47212700   11.45351100   3      80  H
   11.06317300   16.06611100   10.55476300   3      81  H
   12.45950700   18.41251500    9.33057100   3      82  H
   13.30120600   16.63730400    8.01106400   3      83  H
   11.77866000   16.97513900    7.18132800   3      84  H
   11.89228100   15.59959400    8.28476500   3      85  H
    9.67031400   17.18453100    8.91419900   3      86  H
   10.30685500   18.65964500    8.16861100   3      87  H
    9.99520100   18.61495400    9.90953100   3      88  H
   29.15466900   24.59173200    4.55594500   1      89  C
   28.33156500   25.39012700    3.53037700   1      90  C
   29.24601900   26.41772400    2.85560300   1      91  C
   27.69136900   24.43548200    2.50209100   1      92  C
   26.77997500   23.39914700    3.00357600   2      93  N
   25.57921500   23.41900700    3.63748200   1      94  C
   24.93617700   22.36454400    3.64915400   4      95  O
   24.98429100   24.71613700    4.21978100   1      96  C
   24.33531600   24.45218300    5.60653200   1      97  C
   25.39155600   23.98590700    6.61771100   1      98  C
   23.62490900   25.68828700    6.17954700   1      99  C
   23.99396000   25.16017600    3.24004000   2     100  N
   24.19440100   25.92870100    2.12809800   1     101  C
   23.34586400   25.89828000    1.24049800   4     102  O
   25.50346600   26.73906400    1.97268500   1     103  C
   25.17919800   28.15218000    1.41051300   1     104  C
   24.30026400   28.95455500    2.37602400   1     105  C
   26.44644000   28.96226100    1.10804600   1     106  C
   26.31072000   25.99371300    1.00701100   2     107  N
   27.17531200   24.96142700    1.14572900   1     108  C
   27.48595500   24.36315100    0.10813000   4     109  O
   29.60291700   25.25853000    5.30037300   3     110  H
   29.96882800   24.04129600    4.07030500   3     111  H
   28.53055700   23.87001900    5.09249500   3     112  H
   27.58875000   25.95040300    4.09361600   3     113  H
   30.01287400   25.93088900    2.24430100   3     114  H
   29.75286100   27.03642300    3.60434300   3     115  H
   28.67441600   27.09232800    2.21270100   3     116  H
   28.55116000   23.82567200    2.17456500   3     117  H
   26.93249500   22.48440000    2.58779500   3     118  H
   25.74243100   25.47520800    4.34197100   3     119  H
   23.58351300   23.65755000    5.51504800   3     120  H
   26.13634700   24.76758400    6.80370700   3     121  H
   25.91639000   23.09249400    6.26726000   3     122  H
   24.92305100   23.73237600    7.57504300   3     123  H
   24.27414100   26.57046800    6.17324900   3     124  H
   23.31822600   25.51155000    7.21808600   3     125  H
   22.71805700   25.92473600    5.61410500   3     126  H
   23.17545200   24.56628400    3.13477100   3     127  H
   26.03994500   26.83982200    2.91099600   3     128  H
   24.62752400   28.04917300    0.46592100   3     129  H
   24.81201300   29.12546700    3.32875000   3     130  H
   23.35525600   28.44311800    2.58155500   3     131  H
   24.05176200   29.93143000    1.94591600   3     132  H
   27.08160000   29.05468300    1.99494800   3     133  H
   26.18787300   29.97412100    0.77483800   3     134  H
   27.03513100   28.50052100    0.30904500   3     135  H
   25.98000000   26.04303700    0.04721300   3     136  H

outcell: Unit cell vectors (Ang):
       34.944834    0.000000    0.000000
        0.000000   27.825682    0.000000
        0.000000    0.000000   22.154948

outcell: Cell vector modules (Ang)   :   34.944834   27.825682   22.154948
outcell: Cell angles (23,13,12) (deg):     90.0000     90.0000     90.0000
outcell: Cell volume (Ang**3)        :  21542.6703
<dSpData1D:S at geom step 1
  <sparsity:sparsity for geom step 1
    nrows_g=1136 nrows=1136 sparsity=.2209 nnzs=285068, refcount: 7>
  <dData1D:(new from dSpData1D) n=285068, refcount: 1>
refcount: 1>
new_DM -- step:     1
Initializing Density Matrix...
DM filled with atomic data:
<dSpData2D:DM initialized from atoms
  <sparsity:sparsity for geom step 1
    nrows_g=1136 nrows=1136 sparsity=.2209 nnzs=285068, refcount: 8>
  <dData2D:DM n=285068 m=2, refcount: 1>
refcount: 1>
     spin moment: S , {S} =  198.00000       0.0       0.0 198.00000
No. of atoms with KB's overlaping orbs in proc 0. Max # of overlaps:     136     197

InitMesh: MESH = 216 x 180 x 144 = 5598720
InitMesh: Mesh cutoff (required, used) =   100.000   105.595 Ry
New grid distribution [1]: sub = 2

stepf: Fermi-Dirac step function

siesta: Program's energy decomposition (eV):
siesta: Ebs     =     -3087.940948
siesta: Eions   =     17900.761652
siesta: Ena     =      3548.483888
siesta: Ekin    =      8809.095255
siesta: Enl     =     -1548.374060
siesta: Eso     =         0.000000
siesta: Edftu   =         0.000000
siesta: DEna    =      -575.105473
siesta: DUscf   =        90.834629
siesta: DUext   =         0.000000
siesta: Exc     =     -4273.997660
siesta: eta*DQ  =         0.000000
siesta: Emadel  =         0.000000
siesta: Emeta   =         0.000000
siesta: Emolmec =         0.000000
siesta: Ekinion =         0.000000
siesta: Eharris =    -11869.631528
siesta: Etot    =    -11849.825074
siesta: FreeEng =    -11849.838984

        iscf     Eharris(eV)        E_KS(eV)     FreeEng(eV)     dDmax    Ef(eV) dHmax(eV)
   scf:    1   -11869.631528   -11849.825074   -11849.838984  0.976925 -4.931325 10.225139
     spin moment: S , {S} =    2.00003       0.0       0.0   2.00003
timer: Routine,Calls,Time,% = IterSCF        1      14.984  19.48
   scf:    2   -11896.267673   -11876.769828   -11876.769869  0.064845 -4.544812  5.057899
     spin moment: S , {S} =    2.00000       0.0       0.0   2.00000
   scf:    3   -11890.895869   -11885.320958   -11885.321443  0.086113 -3.892131  1.869699
     spin moment: S , {S} =    0.00244       0.0       0.0   0.00244
   scf:    4   -11886.490339   -11885.943743   -11885.943744  0.019306 -3.813000  1.023086
     spin moment: S , {S} =    0.00000       0.0       0.0   0.00000
   scf:    5   -11886.687443   -11886.323632   -11886.323632  0.027877 -3.698361  0.548283
     spin moment: S , {S} =    0.00000       0.0       0.0   0.00000
   scf:    6   -11886.456706   -11886.391665   -11886.391665  0.012421 -3.885320  0.239117
     spin moment: S , {S} =    0.00000       0.0       0.0   0.00000
   scf:    7   -11886.415476   -11886.404142   -11886.404142  0.004035 -3.879777  0.112951
     spin moment: S , {S} =    0.00000       0.0       0.0   0.00000
   scf:    8   -11886.415048   -11886.409713   -11886.409713  0.003095 -3.878730  0.053041
     spin moment: S , {S} =    0.00000       0.0       0.0   0.00000
   scf:    9   -11886.413618   -11886.411670   -11886.411670  0.001981 -3.886785  0.023592
     spin moment: S , {S} =    0.00000       0.0       0.0   0.00000
   scf:   10   -11886.412874   -11886.412258   -11886.412258  0.000958 -3.888224  0.015192
     spin moment: S , {S} =    0.00000       0.0       0.0   0.00000
   scf:   11   -11886.412931   -11886.412581   -11886.412581  0.000907 -3.888333  0.010813
     spin moment: S , {S} =    0.00000       0.0       0.0   0.00000
   scf:   12   -11886.412701   -11886.412642   -11886.412642  0.000281 -3.888129  0.005957
     spin moment: S , {S} =    0.00000       0.0       0.0   0.00000
   scf:   13   -11886.412668   -11886.412651   -11886.412651  0.000133 -3.887819  0.004475
     spin moment: S , {S} =    0.00000       0.0       0.0   0.00000
   scf:   14   -11886.412663   -11886.412657   -11886.412657  0.000089 -3.887479  0.002499
     spin moment: S , {S} =   -0.00000       0.0       0.0  -0.00000
   scf:   15   -11886.412661   -11886.412659   -11886.412659  0.000042 -3.887180  0.001500
     spin moment: S , {S} =    0.00000       0.0       0.0   0.00000
   scf:   16   -11886.412661   -11886.412660   -11886.412660  0.000037 -3.887021  0.000751
     spin moment: S , {S} =   -0.00000       0.0       0.0  -0.00000

SCF Convergence by DM+H criterion
max |DM_out - DM_in|         :     0.0000365685
max |H_out - H_in|      (eV) :     0.0007513087
SCF cycle converged after 16 iterations

Using DM_out to compute the final energy and forces
No. of atoms with KB's overlaping orbs in proc 0. Max # of overlaps:     136     197

siesta: E_KS(eV) =           -11886.4127

siesta: E_KS - E_eggbox =    -11886.4127
     spin moment: S , {S} =   -0.00000       0.0       0.0  -0.00000

siesta: Atomic forces (eV/Ang):
     1    0.485361    0.348811   -0.463226
     2   -0.340558    0.522857    0.438248
     3   -0.286605   -1.029913    0.060696
     4   -0.543494    1.476504    0.335975
     5    0.644452   -0.225573   -0.234180
     6   -1.357330   -0.059888    0.534321
     7    2.183165    1.618806   -0.634886
     8   -1.847916   -0.397953    0.874976
     9   -0.260529   -0.750993   -0.043355
    10    0.367216    1.031033    0.032345
    11    0.433908   -1.702452   -0.476289
    12   -0.727868   -0.145496    0.362204
    13    1.407934    0.410127   -0.672679
    14   -1.244151   -1.819148    0.638188
    15   -0.457111    0.607341   -0.007174
    16    1.111082    0.075974   -1.007060
    17   -0.399291    0.487107    0.228652
    18    0.205921   -0.449465    0.470106
    19   -0.265122   -0.558954   -0.367091
    20   -0.507140    0.492825    0.309193
    21   -0.571802    0.431693    0.322136
    22   -0.687466    0.450025    0.355039
    23    0.730205    0.332637   -0.248414
    24    0.511754   -0.499499   -0.305877
    25    0.575389   -0.510841   -0.324975
    26    0.542487    0.398781   -0.368781
    27   -0.410161   -0.448293   -0.101608
    28    0.311967   -0.323574    0.474207
    29    0.311225   -0.730053   -0.268521
    30    0.123139    0.261562    0.300178
    31    0.168323    0.158864   -0.199128
    32   -1.061873   -0.476987   -0.083771
    33   -0.569250   -0.177481    0.787705
    34    0.684518    0.051426   -0.993607
    35    0.644999    0.566650    0.959420
    36   -0.194903    0.209510   -1.106624
    37   -0.335549    0.625443    0.718641
    38    0.446464   -1.370428    0.964982
    39   -0.467158    1.017604   -0.373936
    40    0.646202   -1.468848    0.276393
    41   -0.184338    0.718516   -0.606745
    42   -0.210520    0.300407    0.618926
    43   -0.563917   -0.309956   -0.866475
    44   -0.993278   -0.125925    0.836433
    45    1.063462    0.181316   -0.829796
    46   -0.815711   -0.549115    0.060319
    47    0.055631    0.558247    0.704159
    48    0.922471   -0.425934    0.215026
    49   -0.606790   -0.005980    0.404476
    50   -0.357193    0.636013   -0.420066
    51    0.632392    0.424434    0.357096
    52   -0.344603   -0.506101   -0.188970
    53   -0.247901    0.693895    0.150075
    54    0.503223   -0.210423   -0.504968
    55    0.389461   -0.113081    0.546536
    56    1.253388   -0.277580   -0.058027
    57   -0.249645    0.023421   -0.758118
    58   -0.656839   -0.003612    0.006048
    59    0.127603    0.141895    0.757997
    60    0.097972    0.080288   -0.801815
    61   -0.266375   -0.502447    0.087134
    62    0.003251   -0.166478    0.773774
    63    0.073070    0.175900   -0.762387
    64   -0.435224   -0.404836   -0.006740
    65    0.626556   -0.275881    0.153609
    66   -0.308558    0.772529    0.261842
    67   -0.110745    0.528715   -0.840486
    68    0.312889   -0.599496   -0.377999
    69    0.081744   -0.390633    0.716524
    70   -0.368102    0.717838    0.423877
    71   -0.107079    0.569423   -0.905919
    72    0.055700   -0.163601    0.606033
    73    0.569001    0.315550   -0.330068
    74   -0.492734   -0.188100   -0.520237
    75    0.195723   -0.573869    0.115912
    76    0.588375   -0.197866    0.183672
    77   -0.323001    0.414619    0.526302
    78    0.215332   -0.500156   -0.745741
    79    0.529334    0.408577    0.051536
    80   -0.204313    0.547536    0.529767
    81   -0.874308   -0.942856    0.063856
    82    0.478152    0.631416   -0.036539
    83    0.686824   -0.150150   -0.127700
    84   -0.226500    0.265082   -0.547257
    85   -0.268496   -0.633593    0.136823
    86   -0.269877   -0.419882   -0.036560
    87   -0.103443    0.465814   -0.660376
    88   -0.285522    0.426828    0.580356
    89   -0.782344    0.399722   -0.590519
    90    0.954489   -0.452317   -0.119710
    91   -0.733443   -0.610456    0.235685
    92   -0.072289    0.145336    0.275243
    93    0.943564    1.049947    0.133553
    94   -0.669120   -0.547139    0.006871
    95   -3.179328    2.943484    3.134769
    96   -1.267544   -1.114642    0.018971
    97    0.694423    0.784748    0.446276
    98   -0.556723    0.112787   -0.867326
    99    0.312309   -0.745729   -0.672343
   100    0.552503    0.742579    0.707880
   101   -0.220435   -0.156009   -0.100012
   102   -3.428769    1.210605   -1.257075
   103   -0.859660   -0.008946   -1.381871
   104    0.624649    0.410576    0.885272
   105    0.355380   -0.752500   -0.587454
   106   -0.681887   -0.795273    0.054705
   107    0.046420    0.875543    1.372437
   108    0.143621   -0.773942   -0.745748
   109    2.752728    1.535858    3.187357
   110    0.240178    0.421638    0.388817
   111    0.478098   -0.320286   -0.364206
   112   -0.453341   -0.539680    0.295805
   113   -0.921034    0.532924    0.505820
   114    0.471466   -0.342021   -0.405931
   115    0.278796    0.281687    0.459001
   116   -0.410100    0.458284   -0.594426
   117    0.424642   -0.160020   -0.482385
   118   -0.045910   -0.575566   -0.206601
   119    0.908771    1.011111    0.096384
   120   -0.312615   -0.720948   -0.421184
   121    0.474169    0.549106    0.113493
   122    0.360678   -0.636489   -0.287972
   123   -0.268221   -0.096146    0.531472
   124    0.444012    0.570635   -0.023764
   125   -0.115615   -0.168779    0.536261
   126   -0.465982    0.268210   -0.450681
   127   -0.555652   -0.490180   -0.127051
   128    0.645793    0.100054    0.966987
   129   -0.527868   -0.512827   -0.515015
   130    0.353341    0.117957    0.625108
   131   -0.607616   -0.444646    0.145068
   132   -0.081552    0.533176   -0.232143
   133    0.441241    0.086800    0.626797
   134   -0.199152    0.553392   -0.151051
   135    0.450975   -0.352010   -0.425746
   136   -0.260768   -0.061465   -0.696058
----------------------------------------
   Tot   -4.737743    4.108588    4.141302
----------------------------------------
   Max    3.428769
   Res    0.695748    sqrt( Sum f_i^2 / 3N )
----------------------------------------
   Max    3.428769    constrained

Stress tensor Voigt[x,y,z,yz,xz,xy] (kbar):       -1.62       -1.63       -1.57       -0.34        0.17        0.36
(Free)E + p*V (eV/cell)   -11864.7868
Target enthalpy (eV/cell)   -11886.4127

siesta: Stress tensor (static) (eV/Ang**3):
        -0.000834    0.000256    0.000126
         0.000256   -0.000849   -0.000202
         0.000126   -0.000202   -0.000846

siesta: Pressure (static):          1.35070279  kBar

siesta: Stress tensor (total) (eV/Ang**3):
        -0.001014    0.000223    0.000104
         0.000223   -0.001016   -0.000213
         0.000104   -0.000213   -0.000982

siesta: Pressure (total):          1.60838436  kBar

mulliken: Atomic and Orbital Populations:

mulliken: Spin UP 

Species: C                   
Atom  Qatom  Qorb
               2s      2s      2py     2pz     2px     2py     2pz     2px     
               3Pdxy   3Pdyz   3Pdz2   3Pdxz   3Pdx2-y2
   1  1.700  -0.040   0.406   0.102   0.099   0.133   0.331   0.327   0.302
              0.011   0.010   0.006   0.008   0.005
   2  2.034   0.263   0.241   0.258   0.342   0.298   0.224   0.118   0.176
              0.029   0.024   0.015   0.013   0.032
   3  1.903   0.157   0.293   0.196   0.327   0.188   0.280   0.141   0.264
              0.019   0.014   0.004   0.006   0.014
   4  1.967   0.207   0.271   0.213   0.316   0.243   0.260   0.140   0.231
              0.023   0.018   0.010   0.011   0.024
   5  1.901   0.162   0.295   0.194   0.333   0.180   0.276   0.126   0.274
              0.021   0.014   0.004   0.007   0.015
   6  1.965   0.205   0.270   0.216   0.320   0.228   0.262   0.138   0.243
              0.021   0.016   0.009   0.012   0.024
   7  1.962   0.196   0.277   0.211   0.340   0.245   0.266   0.113   0.223
              0.034   0.016   0.005   0.012   0.023
   9  1.954   0.187   0.277   0.254   0.365   0.167   0.231   0.099   0.283
              0.026   0.018   0.008   0.008   0.030
  10  1.880   0.151   0.297   0.198   0.323   0.159   0.274   0.133   0.288
              0.019   0.012   0.003   0.008   0.015
  11  1.969   0.205   0.271   0.215   0.324   0.231   0.259   0.135   0.243
              0.024   0.017   0.009   0.012   0.025
  12  1.903   0.163   0.295   0.205   0.331   0.179   0.268   0.127   0.273
              0.021   0.014   0.004   0.007   0.015
  13  1.985   0.214   0.267   0.230   0.337   0.237   0.258   0.131   0.232
              0.021   0.016   0.009   0.011   0.023
  14  2.037   0.274   0.241   0.236   0.359   0.318   0.237   0.099   0.162
              0.034   0.022   0.012   0.015   0.029
  15  1.699  -0.039   0.406   0.144   0.069   0.114   0.298   0.349   0.319
              0.010   0.009   0.004   0.010   0.005
  29  1.695  -0.044   0.405   0.162   0.074   0.089   0.281   0.343   0.340
              0.010   0.012   0.005   0.011   0.008
  30  1.898   0.165   0.287   0.194   0.379   0.145   0.249   0.105   0.311
              0.023   0.007   0.007   0.013   0.013
  31  1.957   0.232   0.257   0.268   0.344   0.200   0.197   0.118   0.257
              0.024   0.010   0.009   0.018   0.023
  32  1.702  -0.034   0.402   0.100   0.072   0.154   0.328   0.345   0.287
              0.008   0.004   0.007   0.015   0.014
  33  1.811   0.057   0.358   0.241   0.092   0.125   0.222   0.327   0.318
              0.013   0.014   0.020   0.003   0.021
  34  1.783   0.057   0.357   0.241   0.084   0.104   0.212   0.335   0.323
              0.012   0.012   0.020   0.004   0.021
  35  1.793   0.065   0.357   0.156   0.086   0.194   0.283   0.333   0.249
              0.021   0.008   0.019   0.010   0.013
  36  1.859   0.128   0.322   0.222   0.093   0.232   0.225   0.328   0.218
              0.021   0.015   0.021   0.012   0.021
  37  1.703  -0.029   0.402   0.146   0.100   0.074   0.291   0.322   0.348
              0.015   0.006   0.016   0.004   0.008
  38  1.804   0.071   0.356   0.144   0.056   0.233   0.290   0.357   0.223
              0.016   0.018   0.010   0.012   0.018
  39  1.791   0.063   0.354   0.137   0.062   0.249   0.290   0.355   0.213
              0.015   0.017   0.010   0.012   0.016
  40  1.801   0.067   0.357   0.137   0.080   0.222   0.289   0.341   0.235
              0.018   0.013   0.013   0.012   0.017
  41  1.866   0.126   0.324   0.209   0.117   0.232   0.237   0.311   0.219
              0.020   0.017   0.018   0.014   0.021
  42  1.715  -0.023   0.396   0.143   0.122   0.094   0.298   0.307   0.333
              0.008   0.009   0.008   0.011   0.009
  43  1.785   0.062   0.358   0.185   0.141   0.104   0.255   0.288   0.322
              0.011   0.019   0.013   0.010   0.016
  44  1.795   0.058   0.356   0.137   0.158   0.154   0.300   0.282   0.280
              0.019   0.014   0.014   0.015   0.009
  45  1.807   0.062   0.359   0.141   0.153   0.144   0.299   0.285   0.290
              0.019   0.016   0.015   0.015   0.009
  46  1.848   0.116   0.326   0.135   0.229   0.170   0.297   0.218   0.267
              0.021   0.016   0.023   0.017   0.013
  47  1.709  -0.024   0.399   0.116   0.141   0.078   0.312   0.294   0.345
              0.006   0.007   0.015   0.007   0.013
  48  1.700  -0.029   0.403   0.076   0.058   0.181   0.343   0.358   0.260
              0.014   0.012   0.007   0.009   0.006
  89  1.702  -0.029   0.403   0.098   0.123   0.104   0.328   0.309   0.320
              0.012   0.013   0.007   0.011   0.005
  90  1.861   0.123   0.322   0.184   0.190   0.182   0.256   0.252   0.261
              0.020   0.021   0.014   0.021   0.015
  91  1.705  -0.030   0.402   0.127   0.091   0.112   0.306   0.335   0.314
              0.011   0.013   0.003   0.012   0.007
  92  1.939   0.162   0.312   0.228   0.233   0.182   0.222   0.229   0.257
              0.024   0.028   0.022   0.020   0.019
  94  2.181   0.361   0.195   0.304   0.342   0.341   0.204   0.104   0.137
              0.041   0.034   0.021   0.031   0.065
  96  1.937   0.142   0.322   0.186   0.261   0.202   0.270   0.201   0.239
              0.030   0.020   0.031   0.022   0.012
  97  1.844   0.122   0.326   0.147   0.225   0.153   0.289   0.215   0.280
              0.022   0.015   0.021   0.016   0.012
  98  1.705  -0.028   0.401   0.074   0.122   0.130   0.348   0.309   0.301
              0.015   0.006   0.013   0.008   0.005
  99  1.703  -0.028   0.401   0.146   0.088   0.091   0.286   0.336   0.335
              0.012   0.006   0.011   0.009   0.009
 101  2.183   0.361   0.194   0.325   0.361   0.303   0.126   0.134   0.186
              0.030   0.039   0.062   0.035   0.027
 103  1.938   0.145   0.320   0.263   0.146   0.242   0.209   0.281   0.218
              0.024   0.019   0.021   0.024   0.027
 104  1.845   0.123   0.326   0.221   0.120   0.181   0.217   0.309   0.261
              0.018   0.014   0.016   0.019   0.020
 105  1.702  -0.030   0.402   0.102   0.114   0.103   0.325   0.311   0.327
              0.009   0.007   0.012   0.009   0.011
 106  1.705  -0.028   0.401   0.104   0.066   0.158   0.323   0.353   0.280
              0.008   0.006   0.005   0.017   0.012
 108  2.187   0.371   0.187   0.355   0.297   0.349   0.115   0.214   0.107
              0.026   0.036   0.056   0.034   0.042

Species: N                   
Atom  Qatom  Qorb
               2s      2s      2py     2pz     2px     2py     2pz     2px     
               3Pdxy   3Pdyz   3Pdz2   3Pdxz   3Pdx2-y2
   8  2.389   0.309   0.303   0.692   0.391   0.213   0.048   0.118   0.269
              0.013   0.007   0.006   0.008   0.009
  16  2.410   0.303   0.305   0.711   0.382   0.242   0.035   0.136   0.252
              0.013   0.008   0.007   0.007   0.009
  93  2.229   0.155   0.360   0.149   0.428   0.266   0.337   0.213   0.283
              0.006   0.007   0.005   0.008   0.013
 100  2.233   0.155   0.361   0.351   0.288   0.217   0.249   0.270   0.302
              0.009   0.008   0.011   0.007   0.005
 107  2.228   0.152   0.363   0.352   0.129   0.348   0.248   0.350   0.246
              0.007   0.005   0.010   0.008   0.010

Species: H                   
Atom  Qatom  Qorb
               1s      1s      2Ppy    2Ppz    2Ppx    
  17  0.600   0.374   0.176   0.015   0.018   0.016
  18  0.601   0.374   0.173   0.019   0.018   0.016
  19  0.602   0.376   0.173   0.019   0.016   0.019
  20  0.629   0.415   0.158   0.016   0.020   0.020
  21  0.625   0.411   0.160   0.016   0.019   0.019
  22  0.618   0.409   0.163   0.016   0.016   0.013
  23  0.616   0.408   0.163   0.013   0.015   0.018
  24  0.626   0.412   0.158   0.016   0.019   0.020
  25  0.626   0.406   0.163   0.017   0.020   0.019
  26  0.600   0.369   0.180   0.016   0.017   0.018
  27  0.599   0.370   0.177   0.017   0.018   0.017
  28  0.601   0.373   0.173   0.019   0.016   0.020
  49  0.601   0.380   0.170   0.016   0.017   0.017
  50  0.605   0.382   0.168   0.019   0.016   0.020
  51  0.602   0.373   0.177   0.019   0.016   0.018
  52  0.630   0.419   0.155   0.021   0.018   0.018
  53  0.601   0.375   0.175   0.016   0.017   0.017
  54  0.599   0.375   0.174   0.017   0.016   0.018
  55  0.606   0.382   0.168   0.018   0.017   0.020
  56  0.594   0.303   0.228   0.020   0.018   0.025
  57  0.611   0.384   0.172   0.017   0.019   0.019
  58  0.602   0.371   0.180   0.016   0.018   0.017
  59  0.613   0.383   0.175   0.018   0.018   0.019
  60  0.609   0.379   0.178   0.018   0.018   0.017
  61  0.601   0.373   0.178   0.016   0.017   0.015
  62  0.609   0.370   0.186   0.018   0.018   0.017
  63  0.606   0.381   0.173   0.017   0.017   0.019
  64  0.604   0.385   0.168   0.016   0.018   0.017
  65  0.600   0.372   0.177   0.016   0.017   0.018
  66  0.595   0.338   0.204   0.019   0.015   0.019
  67  0.606   0.358   0.194   0.020   0.016   0.017
  68  0.603   0.361   0.189   0.019   0.017   0.017
  69  0.611   0.386   0.173   0.019   0.017   0.016
  70  0.607   0.375   0.182   0.019   0.016   0.016
  71  0.595   0.321   0.218   0.019   0.018   0.017
  72  0.603   0.364   0.189   0.017   0.016   0.017
  73  0.599   0.374   0.176   0.016   0.017   0.017
  74  0.601   0.373   0.176   0.018   0.016   0.017
  75  0.602   0.384   0.168   0.016   0.016   0.019
  76  0.603   0.374   0.179   0.017   0.017   0.016
  77  0.607   0.379   0.177   0.016   0.018   0.018
  78  0.608   0.367   0.186   0.017   0.019   0.019
  79  0.605   0.379   0.175   0.015   0.018   0.018
  80  0.607   0.380   0.176   0.016   0.016   0.019
  81  0.598   0.324   0.216   0.021   0.018   0.020
  82  0.614   0.379   0.180   0.018   0.018   0.018
  83  0.600   0.374   0.176   0.017   0.018   0.016
  84  0.603   0.380   0.172   0.017   0.016   0.018
  85  0.605   0.382   0.171   0.017   0.017   0.018
  86  0.604   0.383   0.170   0.016   0.019   0.017
  87  0.603   0.382   0.171   0.017   0.017   0.017
  88  0.605   0.384   0.169   0.017   0.017   0.017
 110  0.600   0.377   0.173   0.016   0.016   0.018
 111  0.600   0.375   0.175   0.018   0.015   0.017
 112  0.608   0.377   0.174   0.018   0.020   0.019
 113  0.609   0.339   0.211   0.019   0.018   0.021
 114  0.601   0.374   0.175   0.016   0.018   0.018
 115  0.600   0.377   0.173   0.016   0.016   0.018
 116  0.605   0.364   0.185   0.018   0.019   0.019
 117  0.581   0.324   0.212   0.014   0.020   0.011
 118  0.598   0.281   0.225   0.033   0.034   0.025
 119  0.598   0.309   0.234   0.021   0.015   0.018
 120  0.611   0.362   0.190   0.021   0.018   0.019
 121  0.605   0.380   0.173   0.016   0.018   0.018
 122  0.604   0.372   0.178   0.017   0.019   0.018
 123  0.598   0.373   0.175   0.018   0.016   0.016
 124  0.607   0.386   0.169   0.017   0.019   0.016
 125  0.600   0.377   0.173   0.016   0.016   0.018
 126  0.606   0.382   0.170   0.017   0.020   0.017
 127  0.597   0.277   0.229   0.033   0.027   0.032
 128  0.601   0.328   0.221   0.016   0.020   0.018
 129  0.610   0.361   0.191   0.019   0.018   0.021
 130  0.606   0.384   0.170   0.019   0.017   0.017
 131  0.605   0.379   0.172   0.019   0.018   0.017
 132  0.599   0.375   0.174   0.016   0.016   0.017
 133  0.602   0.372   0.180   0.017   0.016   0.018
 134  0.600   0.376   0.173   0.016   0.018   0.016
 135  0.606   0.377   0.175   0.021   0.017   0.017
 136  0.598   0.278   0.228   0.028   0.033   0.030

Species: O                   
Atom  Qatom  Qorb
               2s      2s      2py     2pz     2px     2py     2pz     2px     
               3Pdxy   3Pdyz   3Pdz2   3Pdxz   3Pdx2-y2
  95  2.976   0.526   0.235   0.627   0.703   0.721   0.075   0.030   0.041
              0.005   0.005   0.002   0.002   0.005
 102  2.970   0.519   0.239   0.728   0.649   0.659   0.030   0.066   0.060
              0.003   0.003   0.005   0.006   0.003
 109  2.974   0.522   0.236   0.699   0.646   0.713   0.038   0.070   0.031
              0.002   0.006   0.005   0.005   0.002

mulliken: Qtot =      159.000

mulliken: Spin DOWN 

Species: C                   
Atom  Qatom  Qorb
               2s      2s      2py     2pz     2px     2py     2pz     2px     
               3Pdxy   3Pdyz   3Pdz2   3Pdxz   3Pdx2-y2
   1  1.699  -0.040   0.406   0.102   0.099   0.133   0.331   0.327   0.302
              0.011   0.010   0.006   0.008   0.005
   2  2.034   0.263   0.241   0.258   0.342   0.298   0.224   0.118   0.176
              0.029   0.024   0.015   0.013   0.032
   3  1.903   0.157   0.293   0.196   0.326   0.188   0.280   0.141   0.264
              0.019   0.014   0.004   0.006   0.014
   4  1.967   0.207   0.271   0.213   0.316   0.243   0.260   0.140   0.231
              0.023   0.018   0.010   0.011   0.024
   5  1.902   0.162   0.295   0.193   0.333   0.180   0.276   0.126   0.274
              0.021   0.014   0.004   0.007   0.015
   6  1.965   0.205   0.270   0.216   0.320   0.228   0.262   0.138   0.243
              0.021   0.016   0.009   0.012   0.024
   7  1.963   0.196   0.277   0.211   0.340   0.245   0.266   0.113   0.223
              0.034   0.016   0.005   0.012   0.023
   9  1.954   0.187   0.278   0.254   0.365   0.167   0.231   0.099   0.283
              0.026   0.018   0.008   0.008   0.030
  10  1.880   0.151   0.297   0.198   0.323   0.159   0.274   0.133   0.288
              0.019   0.012   0.003   0.008   0.015
  11  1.969   0.205   0.271   0.215   0.324   0.231   0.259   0.135   0.243
              0.024   0.017   0.009   0.012   0.025
  12  1.903   0.163   0.295   0.205   0.331   0.179   0.268   0.127   0.273
              0.021   0.014   0.004   0.007   0.015
  13  1.985   0.214   0.267   0.230   0.337   0.237   0.258   0.131   0.232
              0.021   0.016   0.009   0.011   0.023
  14  2.037   0.274   0.241   0.236   0.359   0.318   0.237   0.099   0.162
              0.034   0.022   0.012   0.015   0.029
  15  1.698  -0.039   0.406   0.144   0.069   0.114   0.298   0.349   0.319
              0.010   0.009   0.004   0.010   0.005
  29  1.695  -0.044   0.405   0.162   0.074   0.089   0.281   0.343   0.340
              0.010   0.012   0.005   0.011   0.008
  30  1.898   0.165   0.287   0.194   0.379   0.145   0.249   0.105   0.311
              0.023   0.007   0.007   0.013   0.013
  31  1.957   0.232   0.257   0.268   0.344   0.200   0.197   0.118   0.257
              0.024   0.010   0.009   0.018   0.023
  32  1.702  -0.034   0.402   0.100   0.072   0.154   0.328   0.345   0.287
              0.008   0.004   0.007   0.015   0.014
  33  1.811   0.057   0.358   0.241   0.092   0.125   0.222   0.327   0.318
              0.013   0.014   0.020   0.003   0.021
  34  1.783   0.057   0.357   0.241   0.084   0.104   0.212   0.335   0.323
              0.012   0.012   0.020   0.004   0.021
  35  1.793   0.065   0.357   0.156   0.086   0.194   0.283   0.333   0.249
              0.021   0.008   0.019   0.010   0.013
  36  1.859   0.128   0.322   0.222   0.093   0.232   0.225   0.328   0.218
              0.021   0.015   0.021   0.012   0.021
  37  1.703  -0.029   0.402   0.146   0.100   0.074   0.291   0.323   0.348
              0.015   0.006   0.016   0.004   0.008
  38  1.804   0.071   0.356   0.144   0.056   0.233   0.290   0.357   0.223
              0.016   0.018   0.010   0.012   0.018
  39  1.791   0.063   0.354   0.137   0.062   0.249   0.290   0.355   0.213
              0.015   0.017   0.010   0.012   0.016
  40  1.801   0.067   0.357   0.137   0.080   0.222   0.290   0.341   0.235
              0.018   0.013   0.013   0.012   0.017
  41  1.866   0.126   0.324   0.209   0.117   0.232   0.237   0.311   0.219
              0.020   0.017   0.018   0.014   0.021
  42  1.715  -0.023   0.396   0.143   0.122   0.094   0.298   0.307   0.333
              0.008   0.009   0.008   0.011   0.009
  43  1.785   0.062   0.358   0.185   0.141   0.104   0.255   0.288   0.322
              0.011   0.019   0.013   0.010   0.016
  44  1.795   0.058   0.356   0.136   0.158   0.154   0.300   0.282   0.280
              0.019   0.014   0.014   0.015   0.009
  45  1.807   0.062   0.359   0.141   0.153   0.144   0.299   0.285   0.290
              0.019   0.016   0.015   0.015   0.009
  46  1.848   0.116   0.326   0.135   0.229   0.170   0.297   0.218   0.267
              0.021   0.016   0.023   0.017   0.013
  47  1.709  -0.024   0.399   0.116   0.141   0.078   0.312   0.294   0.345
              0.006   0.007   0.015   0.007   0.013
  48  1.700  -0.029   0.403   0.076   0.058   0.181   0.343   0.358   0.260
              0.014   0.012   0.007   0.009   0.006
  89  1.702  -0.029   0.403   0.097   0.123   0.104   0.328   0.309   0.320
              0.012   0.013   0.007   0.011   0.005
  90  1.861   0.123   0.322   0.184   0.190   0.182   0.256   0.252   0.261
              0.020   0.021   0.014   0.021   0.015
  91  1.705  -0.030   0.402   0.127   0.091   0.112   0.306   0.335   0.314
              0.011   0.013   0.003   0.012   0.007
  92  1.939   0.162   0.312   0.228   0.233   0.182   0.222   0.229   0.257
              0.024   0.028   0.022   0.020   0.019
  94  2.181   0.361   0.195   0.304   0.342   0.341   0.204   0.104   0.137
              0.041   0.034   0.021   0.031   0.065
[...]
   16.7448   16.7630   16.7806   16.8231   16.8675   16.9410   16.9585   17.0072   17.0183   17.1268
   17.2490   17.2543   17.3307   17.3773   17.5139   17.5671   17.6026   17.6362   17.6745   17.7041
   17.7817   17.8121   17.8851   17.9651   17.9782   18.0357   18.0676   18.1140   18.1178   18.1367
   18.1645   18.2470   18.2951   18.3124   18.3374   18.3899   18.4287   18.4628   18.4838   18.4973
   18.5080   18.5609   18.6055   18.6094   18.6178   18.6340   18.6653   18.6913   18.7118   18.7753
   18.8193   18.8382   18.8859   18.9302   19.0310   19.0769   19.1377   19.1539   19.2152   19.2553
   19.2824   19.2884   19.3929   19.4077   19.4437   19.4658   19.4790   19.5033   19.5535   19.5974
   19.6212   19.6853   19.7475   19.7975   19.8244   19.8469   19.8723   19.9255   19.9790   20.0192
   20.1294   20.1871   20.3281   20.3810   20.3987   20.4959   20.5422   20.5976   20.6028   20.6300
   20.6766   20.7224   20.8490   20.8614   20.9121   20.9586   20.9964   21.0498   21.1557   21.2144
   21.2308   21.2547   21.3265   21.3751   21.4884   21.5866   21.6381   21.6547   21.7371   21.7531
   21.7766   21.8097   21.8586   21.9147   21.9558   21.9994   22.0243   22.0793   22.1657   22.2477
   22.2996   22.3094   22.3698   22.4171   22.5288   22.7000   22.7081   22.8084   22.8749   22.9101
   22.9587   23.0043   23.1587   23.1738   23.2903   23.3647   23.4320   23.4994   23.5909   23.7184
   23.7353   23.7801   23.8682   23.9356   23.9971   24.0532   24.2132   24.2708   24.3157   24.3656
   24.4093   24.4175   24.5775   24.6881   24.7384   24.7957   24.8196   24.9834   25.0523   25.1831
   25.2778   25.3417   25.3884   25.4403   25.4755   25.5397   25.6656   25.8135   25.8561   26.0036
   26.0580   26.1164   26.3137   26.3473   26.4223   26.4652   26.5310   26.6050   26.7376   26.8007
   26.8462   26.9691   27.1135   27.1862   27.2505   27.2636   27.3132   27.5397   27.5940   27.6817
   27.7520   27.8289   27.9040   27.9778   28.1275   28.1742   28.3139   28.3842   28.6080   28.6272
   28.7190   28.7221   28.9156   28.9822   29.0158   29.1716   29.3231   29.3535   29.4581   29.6033
   29.7014   29.7135   29.9673   30.2194   30.3013   30.3576   30.4812   30.5856   30.6715   30.8577
   30.9302   31.0464   31.1418   31.2812   31.3036   31.3649   31.3755   31.4627   31.5829   31.6240
   31.8416   31.8720   31.9726   32.1704   32.2394   32.4273   32.6236   32.6334   32.6388   32.7482
   32.7568   32.9266   33.2479   33.5471   33.7054   33.8188   33.9032   33.9531   34.0325   34.1571
   34.2221   34.3645   34.5175   34.5958   34.6202   34.7999   34.8401   34.9335   34.9934   35.1639
   35.2812   35.3517   35.3682   35.5760   35.5946   35.6944   35.7663   35.8628   36.0176   36.1878
   36.2223   36.3165   36.3834   36.4539   36.4772   36.5370   36.8830   37.0778   37.2022   37.2666
   37.2982   37.3681   37.3772   37.4891   37.6753   37.6822   37.8494   37.9240   38.0527   38.1152
   38.1918   38.2405   38.3437   38.4041   38.4768   38.6390   38.8659   38.9251   39.0428   39.0653
   39.1653   39.3405   39.3993   39.4882   39.6084   39.6480   39.7453   39.7658   39.8786   40.0679
   40.1051   40.2658   40.2884   40.4940   40.5000   40.5151   40.6750   40.8508   40.9244   40.9775
   41.0707   41.0870   41.1684   41.3429   41.3841   41.4393   41.4633   41.5848   41.6821   41.7518
   41.8013   41.9858   42.0091   42.0499   42.0931   42.2563   42.3255   42.3621   42.4912   42.5820
   42.6548   42.8561   42.9077   42.9392   43.0274   43.1301   43.2054   43.3665   43.4064   43.4785
   43.6979   43.8347   43.9064   43.9472   44.0249   44.0937   44.2311   44.2778   44.3228   44.4287
   44.4772   44.5601   44.6034   44.7159   44.8498   44.9283   44.9629   45.1490   45.2505   45.3928
   45.4406   45.4685   45.5294   45.6227   45.7306   45.7454   45.9952   46.1753   46.2109   46.2694
   46.3255   46.4035   46.4209   46.5422   46.6826   46.9692   46.9943   47.0932   47.1949   47.3709
   47.4590   47.5290   47.5670   47.8443   47.8624   47.8970   47.9515   48.1102   48.1939   48.3312
   48.6039   48.6254   48.6831   48.7885   48.9871   49.1944   49.2516   49.2732   49.4193   49.4603
   49.5921   49.6877   49.7332   49.7695   49.8227   49.9346   50.0928   50.3570   50.4228   50.4277
   50.6233   50.6518   50.8132   50.9084   51.0057   51.2151   51.2537   51.4057   51.4449   51.4679
   51.7344   51.7755   51.8475   51.8766   52.1851   52.1944   52.4202   52.4237   52.4930   52.5314
   52.5525   52.6595   52.8034   52.8778   53.0353   53.3754   53.4436   53.4745   53.6537   53.7285
   53.8090   53.8380   53.9533   54.2331   54.4602   54.4920   54.6984   54.8185   54.9389   54.9711
   55.1358   55.2344   55.3507   55.5520   55.6226   55.6538   55.8142   55.9005   55.9307   56.1492
   56.1533   56.2000   56.2155   56.5391   56.8506   56.9823   56.9973   57.2227   57.2608   57.3605
   57.5103   57.5931   57.6170   57.7624   58.0419   58.1674   58.3416   58.4017   58.5120   58.5390
   58.7161   58.8216   58.9728   59.0547   59.1372   59.2507   59.3636   59.4177   59.4473   59.5005
   59.6392   59.6518   59.8473   59.9548   60.1706   60.2666   60.4132   60.4380   60.4921   60.7188
   60.8023   60.8691   61.0978   61.2451   61.3375   61.3899   61.5109   61.5123   61.7697   61.8423
   61.8997   61.9221   62.1636   62.2906   62.4871   62.5546   62.6438   62.7518   62.8482   62.9835
   63.2657   63.4435   63.4958   63.6364   63.6951   63.7781   63.8834   63.9170   64.0676   64.3510
   64.4669   64.6321   64.7541   64.7546   64.9251   64.9522   65.1098   65.1518   65.4482   65.5835
   65.6295   65.9438   65.9721   66.0965   66.1792   66.3305   66.4358   66.6677   66.8957   66.9235
   67.1249   67.1741   67.2579   67.4304   67.5137   67.6541   67.8397   67.9890   68.0816   68.1519
   68.2167   68.3275   68.8030   68.8688   68.9088   69.1784   69.4086   69.4733   69.5714   69.6754
   69.8410   70.0610   70.4056   70.4413   70.6666   70.9332   70.9719   71.4389   71.4652   71.4960
   71.7312   71.8470   71.8594   72.2857   72.3722   72.7352   72.7993   72.9634   73.0241   73.0488
   73.1653   73.2650   73.5390   73.5412   73.7989   74.0947   74.2620   74.2937   74.5102   74.6769
   74.8131   75.0058   75.1456   75.1723   75.1894   75.4624   75.5910   75.6605   75.6749   76.1719
   76.2273   76.4134   76.8402   77.0423   77.1297   77.4511   77.5356   77.8985   78.1098   78.5857
   78.7026   78.8872   78.9976   79.1067   79.3072   79.5590   79.6634   79.8525   80.1380   80.2937
   81.5066   81.9504   82.2552   82.3633   82.7455   83.2923   83.6135   83.7591   84.0517   84.5265
   84.8404   84.9846   85.6732   86.0714   86.4294   87.2644   87.6588   88.4406   88.4736   88.9751
   89.4972   89.7569   91.0477   91.1976   92.5743   93.2891   94.7746   94.9370   95.1502   96.0658
   97.6697   97.7378   98.2992   98.4476   98.9015  100.9993  103.1179  103.4471  104.6941  105.1203
  106.4556  106.7558  108.9352  111.8112  114.8630  120.7518

siesta: PDOS info
siesta: E1 -- E2, sigma [eV], nhist:  -10.000 --   10.000    0.200 500

siesta: Program's energy decomposition (eV):
siesta: Ebs     =     -3813.969154
siesta: Eions   =     17900.761652
siesta: Ena     =      3546.834341
siesta: Ekin    =      8313.572859
siesta: Enl     =     -1438.887878
siesta: Eso     =         0.000000
siesta: Edftu   =         0.000000
siesta: DEna    =      -277.608856
siesta: DUscf   =        35.679218
siesta: DUext   =         0.000000
siesta: Exc     =     -4163.368324
siesta: eta*DQ  =         0.000000
siesta: Emadel  =         0.000000
siesta: Emeta   =         0.000000
siesta: Emolmec =         0.000000
siesta: Ekinion =         3.815905
siesta: Eharris =    -11880.724388
siesta: Etot    =    -11880.724387
siesta: FreeEng =    -11880.724387

siesta: Final energy (eV):
siesta:  Band Struct. =   -3813.969154
siesta:       Kinetic =    8313.572859
siesta:       Hartree =   46493.289638
siesta:       Edftu   =       0.000000
siesta:       Eso     =       0.000000
siesta:    Ext. field =       0.000000
siesta:   Exch.-corr. =   -4163.368324
siesta:  Ion-electron = -100246.794145
siesta:       Ion-ion =   37718.759680
siesta:       Ekinion =       3.815905
siesta:         Total =  -11880.724387
siesta:         Fermi =      -3.269360

siesta: Atomic forces (eV/Ang):
siesta:      1   -0.901834    1.461075   -1.174930
siesta:      2    0.422227   -1.084339   -0.139534
siesta:      3    0.902053   -0.139008   -0.359857
siesta:      4    0.089203   -1.395162   -1.194069
siesta:      5   -0.287619    0.247947    1.164561
siesta:      6    1.887018   -0.185734   -2.016730
siesta:      7   -1.364254   -2.108882    1.026713
siesta:      8    2.883514    1.487271   -0.121557
siesta:      9   -1.085310    0.815809    0.567033
siesta:     10    0.454222   -2.497720   -1.291005
siesta:     11   -0.286983    0.222719    0.999297
siesta:     12   -0.223881   -0.014189   -0.882805
siesta:     13   -0.857296   -0.466816    0.676664
siesta:     14    2.347482    2.254739   -0.024270
siesta:     15    1.381253   -0.404492    1.069512
siesta:     16   -1.206792   -0.549356    0.542067
siesta:     17   -0.079294    0.026107    0.360544
siesta:     18    0.382481   -0.747835    0.748389
siesta:     19    0.250759   -0.380160    0.052309
siesta:     20   -1.306840    1.004857    0.838810
siesta:     21   -0.263674   -0.147365    0.073026
siesta:     22   -0.128076    0.551711   -0.330262
siesta:     23    0.086033    0.455864   -0.148558
siesta:     24   -0.753723    0.708781    0.900017
siesta:     25   -0.166804    0.114775    0.456293
siesta:     26   -0.696022    0.350748   -0.111974
siesta:     27   -0.110372   -0.598359   -0.253171
siesta:     28   -1.064011    0.431747   -0.794799
siesta:     29   -0.210127   -1.014857   -0.511315
siesta:     30    1.118033    1.440520    0.248821
siesta:     31   -1.249770   -1.614486   -0.398723
siesta:     32   -0.523178    0.276388    0.465004
siesta:     33    0.076746   -0.368125   -0.422807
siesta:     34   -2.105293    1.341347    0.358927
siesta:     35    1.137129    0.563539   -1.796599
siesta:     36   -0.368978    2.394990   -0.581102
siesta:     37   -0.746151   -2.982463    1.295889
siesta:     38   -0.659633    0.251071   -0.322128
siesta:     39    0.332613   -0.028273   -0.830129
siesta:     40   -0.263466   -0.848038    0.853313
siesta:     41    1.686112    1.371518   -1.490054
siesta:     42    0.467508   -1.113158   -0.092856
siesta:     43   -1.175002   -1.216294    0.234943
siesta:     44   -0.867748   -0.466486   -0.443122
siesta:     45    0.502162    0.188252   -2.090241
siesta:     46    0.142996    0.015413    0.479118
siesta:     47    1.127971   -0.342724    0.998289
siesta:     48   -1.163931   -2.750975    0.216334
siesta:     49   -0.707583    0.188267    0.585677
siesta:     50    0.222312   -0.162651    0.032058
siesta:     51    0.444486    0.292362    0.024740
siesta:     52    0.106360   -0.141606   -0.160813
siesta:     53    0.218571   -0.079789    0.141039
siesta:     54    0.354449    0.105831   -0.012753
siesta:     55    0.033696    0.265715   -0.434695
siesta:     56    0.466635    0.283590    0.125082
siesta:     57   -0.379127    0.288521   -0.759339
siesta:     58    2.207198   -0.329181   -0.015523
siesta:     59   -0.171508   -0.421007    0.775334
siesta:     60    0.515493    0.368985    1.504858
siesta:     61   -0.601928   -1.184383    0.596121
siesta:     62   -0.405910   -0.687381    1.332686
siesta:     63    0.213645    0.110118   -0.801936
siesta:     64    1.284613    1.309501   -0.383780
siesta:     65   -0.531587    0.492030   -0.573600
siesta:     66   -0.154949   -0.951924    0.268627
siesta:     67    0.379715   -0.067179   -0.484567
siesta:     68   -0.289987    0.066335   -0.159053
siesta:     69    0.063040    0.261567    0.800352
siesta:     70   -0.036928    0.009078    0.226752
siesta:     71   -0.116979    0.359055   -0.966635
siesta:     72    0.024246   -0.463402    0.898252
siesta:     73   -0.213405    0.294137    0.300679
siesta:     74    0.118765   -0.012588    0.475399
siesta:     75   -0.667713    0.993959   -0.406898
siesta:     76   -0.157607   -0.008709    0.174503
siesta:     77    0.263932    0.254036    0.314264
siesta:     78    0.238225   -0.360937   -0.156884
siesta:     79    0.207548    0.635556   -0.098132
siesta:     80   -0.410962    1.952426    2.104865
siesta:     81   -0.183429   -0.900194   -0.628921
siesta:     82    0.737051    0.301348    0.163092
siesta:     83   -0.286280   -0.579828   -0.076442
siesta:     84   -0.532777    0.510696   -0.857547
siesta:     85    0.220403   -0.124736   -0.179922
siesta:     86    0.341044    1.084434   -0.221041
siesta:     87    0.118362    0.244484   -0.496015
siesta:     88   -0.178024    0.730677    0.827498
siesta:     89    0.458657   -0.485329   -0.820475
siesta:     90   -0.264244   -0.264393   -0.444119
siesta:     91    0.065831    1.285905   -0.541089
siesta:     92    1.264414   -1.021167   -1.426798
siesta:     93   -2.211531   -0.078185    1.873442
siesta:     94    0.958105    2.198690   -1.213766
siesta:     95    2.419504   -0.167760   -2.324489
siesta:     96   -0.204233   -0.265463   -0.006862
siesta:     97    3.011561    0.902440    0.275036
siesta:     98   -3.672139   -1.278646   -1.737137
siesta:     99   -0.645337   -0.783025   -0.158478
siesta:    100    0.709802    0.299236    0.363360
siesta:    101   -0.029807    0.499579   -0.460363
siesta:    102    3.751138   -2.021862    2.732594
siesta:    103   -0.820669    1.385443    0.448611
siesta:    104   -0.253651   -1.214853    0.418442
siesta:    105    0.154902   -0.471685    0.780765
siesta:    106   -1.040998   -0.953770   -1.740234
siesta:    107    0.508265   -0.633947   -0.802965
siesta:    108   -0.372821    1.648402    2.205929
siesta:    109   -1.494451    1.228061   -0.047865
siesta:    110    0.146757    0.422325    0.039232
siesta:    111   -0.277193    0.525182    0.212998
siesta:    112   -0.748495   -0.746705    0.559209
siesta:    113   -0.054971    0.070473    0.132736
siesta:    114   -0.570731    0.237092    0.146852
siesta:    115    0.250948    0.136451   -0.204411
siesta:    116    0.670993   -0.768611    0.564614
siesta:    117   -0.842296    0.525295    0.828522
siesta:    118    0.353559   -0.857599   -0.513123
siesta:    119   -0.780464   -0.570360   -0.303924
siesta:    120   -0.247347   -0.721111   -0.028340
siesta:    121    1.104493    1.483922    0.479428
siesta:    122    0.696015   -0.795416   -0.412958
siesta:    123    0.346728    0.321765    0.538664
siesta:    124    1.032511    0.675480    0.020641
siesta:    125   -0.392539   -0.010544    1.055808
siesta:    126   -0.772867    0.251174   -0.732816
siesta:    127    0.534416   -0.193807    0.537790
siesta:    128    0.258278   -0.090987    0.579046
siesta:    129   -0.361569    0.176227   -0.390202
siesta:    130   -0.122706    0.311324   -0.456860
siesta:    131    0.317142    0.214751   -0.681077
siesta:    132    0.006530   -0.426899    0.348704
siesta:    133    1.158965    0.014435    1.540631
siesta:    134   -0.236348    0.556936   -0.042105
siesta:    135    0.051488   -0.100138    0.285538
siesta:    136   -0.209390    0.297637   -0.187601
siesta: ----------------------------------------
siesta:    Tot    3.918762    0.185063    1.891192

siesta: Stress tensor (static) (eV/Ang**3):
siesta:     0.000391   -0.000132    0.000235
siesta:    -0.000132   -0.000092   -0.000127
siesta:     0.000235   -0.000127   -0.000416

siesta: Cell volume =      21542.670277 Ang**3

siesta: Pressure (static):
siesta:                Solid            Molecule  Units
siesta:           0.00000043          0.00000025  Ry/Bohr**3
siesta:           0.00003912          0.00002279  eV/Ang**3
siesta:           0.06267789          0.03651508  kBar
(Free)E+ p_basis*V_orbitals  =      -11850.189245
(Free)Eharris+ p_basis*V_orbitals  =      -11850.189246
     spin moment: S , {S} =   -0.00000       0.0       0.0  -0.00000

siesta: Electric dipole (a.u.)  =    0.895527    0.413419    1.369847
siesta: Electric dipole (Debye) =    2.276205    1.050806    3.481806

cite: Please see "siesta.bib" for an exhaustive BiBTeX file.
cite: This calculation has made use of the following articles.
cite: Articles are encouraged to be cited in a published work.
        Primary SIESTA paper
          DOI: www.doi.org/10.1088/0953-8984/14/11/302


timer: Elapsed wall time (sec) =    2201.115
timer: CPU execution times (sec):

Routine            Calls   Time/call    Tot.time        %
siesta                 1    2200.075    2200.075   100.00
Setup                  1       0.372       0.372     0.02
bands                  3     111.594     334.781    15.22
KSV_init               1       0.000       0.000     0.00
IterGeom              10     132.677    1326.767    60.31
state_init            10       0.840       8.405     0.38
hsparse               10       0.031       0.313     0.01
overlap               10       0.746       7.459     0.34
Setup_H0              10       9.438      94.381     4.29
naefs                 20       0.002       0.031     0.00
MolMec                20       0.000       0.000     0.00
kinefsm               20       0.410       8.201     0.37
nlefsm                20       2.697      53.949     2.45
DHSCF_Init            10       3.959      39.589     1.80
DHSCF1                10       0.028       0.277     0.01
INITMESH              10       0.000       0.000     0.00
DHSCF2                10       3.931      39.311     1.79
REMESH                10       0.475       4.753     0.22
REORD                646       0.012       7.496     0.34
PHION                 10       2.483      24.828     1.13
COMM_BSC             974       0.010       9.376     0.43
POISON               127       0.554      70.387     3.20
fft                  254       0.216      54.989     2.50
IterSCF               96      11.817    1134.432    51.56
setup_H              106       3.375     357.722    16.26
DHSCF                117       3.758     439.645    19.98
DHSCF3               117       3.340     390.737    17.76
rhoofd               117       0.987     115.445     5.25
XC                   117       0.553      64.698     2.94
GXC-CellXC           117       0.440      51.445     2.34
cellXC               117       0.440      51.444     2.34
vmat                 116       0.811      94.106     4.28
compute_dm            96       8.069     774.614    35.21
diagon                96       8.065     774.253    35.19
r-eigvec             192       3.725     715.198    32.51
r-buildHS            192       0.004       0.693     0.03
rdiag                194       3.718     721.195    32.78
rdiag1               194       0.109      21.146     0.96
rdiag2               194       0.178      34.538     1.57
rdiag3               194       2.299     446.087    20.28
rdiag4               194       1.126     218.405     9.93
r-buildD              96       0.597      57.344     2.61
MIXER                 86       0.011       0.976     0.04
PostSCF               10       8.943      89.427     4.06
DHSCF4                10       4.891      48.907     2.22
dfscf                 10       4.330      43.300     1.97
overfsm               10       0.097       0.968     0.04
state_analysis        10       0.006       0.064     0.00
siesta_move           10       0.003       0.031     0.00
Analysis               1     872.931     872.931    39.68
c-eigval             152       2.201     334.582    15.21
c-buildHS            152       0.013       1.905     0.09
cdiag                152       2.189     332.676    15.12
cdiag1               152       0.367      55.725     2.53
cdiag2               152       0.565      85.822     3.90
cdiag3               152       1.257     191.125     8.69
pdos                   1     535.621     535.621    24.35
optical                1       0.000       0.000     0.00
  

>> End of run:  14-DEC-2020   0:27:43
Job completed
