Siesta Version  : master-post-4.1-266
Architecture    : unknown
Compiler version: GNU Fortran (Ubuntu 9.3.0-17ubuntu1~20.04) 9.3.0
Compiler flags  : gfortran -O2 -fPIC -ftree-vectorize
PP flags        : -DFC_HAVE_ABORT -DSIESTA__DIAG_2STAGE -DSIESTA__MRRR
Libraries       : libsiestaLAPACK.a libsiestaBLAS.a
Directory       : /home/colinw/siesta/MD_Simulations/laPAH1
SERIAL version

* Running in serial mode
>> Start of run:   5-DEC-2020  18:39:37

                           ***********************       
                           *  WELCOME TO SIESTA  *       
                           ***********************       

reinit: Reading from standard input
reinit: Dumped input in INPUT_TMP.80438
************************** Dump of input data file ****************************
NumberOfAtoms 20
SpinPolarized yes
#FixSpin .true.
#TotalSpin
NumberOfSpecies 3
MD.TypeOfRun  nose
MD.FinalTimeStep 250
MD.LengthTimeStep 1.0  fs
MD.InitialTemperature 300 K
MD.TargetTemperature  300  K
%block ChemicalSpeciesLabel
1  6  c
2  7  n
3  1  h
%endblock ChemicalSpeciesLabel
PAO.BasisSize dzp
 PAO.EnergyShift 0.02 Ry
MeshCutoff          100 Ry
MaxSCFIterations    100
DM.NumberPulay       3
DM.Tolerance         1e-3
WriteDenchar	.true.
%block ProjectedDensityOfStates
-10.0 10.0 0.200 500 eV
%endblock ProjectedDensityOfStates
NetCharge 0.00
%block BandLines
1  1.000  1.000 1.000  L
20 0.00   0.00   0.00  \Gamma
25 2.00   0.000  0.00  X
30 2.00   2.00   2.00  \Gamma
%endblock BandLines
LongOutput .true.
WriteCoorXmol .true.
LatticeConstant 1 Ang
%block LatticeVectors
  13.84713 0.0 0.0
  0.0 14.79643 0.0
  0.0 0.0 9.78791
%endblock LatticeVectors
#UseSaveData .true.
%block kgrid_Monkhorst_Pack
1 0 0 0.0
 0 1 0 0.0
 0 0 1 0.0
%endblock kgrid_Monkhorst_Pack
WriteMDXmol .true.
AtomicCoordinatesFormat Ang
%block AtomicCoordinatesAndAtomicSpecies
0.96690  -0.12712 0.10565  1
2.46991  -0.08075 0.09413  1
3.18420  -1.28151 0.07704  1
4.56414  -1.23054 0.05666  1
5.27434  -0.08527 0.04638  2
4.59810  1.07576 0.05676  1
5.32492  2.25856 0.02358  1
4.70235  3.50867 0.02024  1
3.31827  3.58622 0.06681  1
2.56424  2.41396 0.10608  1
3.18583  1.14270 0.08959  1
0.59560  -1.15658 0.05859  3
0.56344  0.40310 -0.76308  3
0.57844  0.32295 1.02483  3
2.68088  -2.24248 0.07458  3
5.15694  -2.14065 0.04198  3
6.41057  2.20378 -0.00848  3
5.30292  4.41350 -0.01937  3
2.82361  4.55395 0.06799  3
1.48172  2.50215 0.14396  3
 %endblock AtomicCoordinatesAndAtomicSpecies
************************** End of input data file *****************************

reinit: -----------------------------------------------------------------------
reinit: System Name: 
reinit: -----------------------------------------------------------------------
reinit: System Label: siesta
reinit: -----------------------------------------------------------------------

initatom: Reading input for the pseudopotentials and atomic orbitals ----------
Species number:   1 Atomic number:    6 Label: c
Species number:   2 Atomic number:    7 Label: n
Species number:   3 Atomic number:    1 Label: h

Ground state valence configuration:   2s02  2p02
Reading pseudopotential information in formatted form from c.psf

Valence configuration for pseudopotential generation:
2s( 2.00) rc: 1.54
2p( 2.00) rc: 1.54
3d( 0.00) rc: 1.54
4f( 0.00) rc: 1.54
Ground state valence configuration:   2s02  2p03
Reading pseudopotential information in formatted form from n.psf

Valence configuration for pseudopotential generation:
2s( 2.00) rc: 1.48
2p( 3.00) rc: 1.48
3d( 0.00) rc: 1.48
4f( 0.00) rc: 1.48
Ground state valence configuration:   1s01
Reading pseudopotential information in formatted form from h.psf

Valence configuration for pseudopotential generation:
1s( 1.00) rc: 1.31
2p( 0.00) rc: 1.31
3d( 0.00) rc: 0.37
4f( 0.00) rc: 1.31
For c, standard SIESTA heuristics set lmxkb to 3
 (one more than the basis l, including polarization orbitals).
Use PS.lmax or PS.KBprojectors blocks to override.
For n, standard SIESTA heuristics set lmxkb to 3
 (one more than the basis l, including polarization orbitals).
Use PS.lmax or PS.KBprojectors blocks to override.
For h, standard SIESTA heuristics set lmxkb to 2
 (one more than the basis l, including polarization orbitals).
Use PS.lmax or PS.KBprojectors blocks to override.

<basis_specs>
===============================================================================
c                    Z=   6    Mass=  12.010        Charge= 0.17977+309
Lmxo=1 Lmxkb= 3    BasisType=split      Semic=F
L=0  Nsemic=0  Cnfigmx=2
          i=1  nzeta=2  polorb=0  (2s)
            splnorm:   0.15000    
               vcte:    0.0000    
               rinn:    0.0000    
               qcoe:    0.0000    
               qyuk:    0.0000    
               qwid:   0.10000E-01
                rcs:    0.0000      0.0000    
            lambdas:    1.0000      1.0000    
L=1  Nsemic=0  Cnfigmx=2
          i=1  nzeta=2  polorb=1  (2p)
            splnorm:   0.15000    
               vcte:    0.0000    
               rinn:    0.0000    
               qcoe:    0.0000    
               qyuk:    0.0000    
               qwid:   0.10000E-01
                rcs:    0.0000      0.0000    
            lambdas:    1.0000      1.0000    
-------------------------------------------------------------------------------
L=0  Nkbl=1  erefs: 0.17977+309
L=1  Nkbl=1  erefs: 0.17977+309
L=2  Nkbl=1  erefs: 0.17977+309
L=3  Nkbl=1  erefs: 0.17977+309
===============================================================================
</basis_specs>

atom: Called for c                     (Z =   6)

read_vps: Pseudopotential generation method:
read_vps: ATM3      Troullier-Martins                       
Valence charge for ps generation:    4.00000

read_vps: Pseudopotential includes a core correction:
read_vps: Pseudo-core for xc-correction

xc_check: Exchange-correlation functional:
xc_check: Ceperley-Alder
xc_check: WARNING: Pseudopotential generated with GGA PBE functional
V l=0 = -2*Zval/r beyond r=  1.5227
V l=1 = -2*Zval/r beyond r=  1.5227
V l=2 = -2*Zval/r beyond r=  1.5227
V l=3 = -2*Zval/r beyond r=  1.5038
All V_l potentials equal beyond r=  1.5227
This should be close to max(r_c) in ps generation
All pots = -2*Zval/r beyond r=  1.5227

VLOCAL1: 99.0% of the norm of Vloc inside     18.722 Ry
VLOCAL1: 99.9% of the norm of Vloc inside     42.668 Ry
atom: Maximum radius for 4*pi*r*r*local-pseudopot. charge    1.83678
atom: Maximum radius for r*vlocal+2*Zval:    1.58088

KBgen: Kleinman-Bylander projectors: 
GHOST: No ghost state for L =  0
   l= 0   rc=  1.704034   el= -0.998584   Ekb=  5.327875   kbcos=  0.314897
GHOST: No ghost state for L =  1
   l= 1   rc=  1.704034   el= -0.383998   Ekb= -3.785479   kbcos= -0.363289
GHOST: No ghost state for L =  2
   l= 2   rc=  1.791422   el=  0.002326   Ekb= -0.971263   kbcos= -0.009325
GHOST: No ghost state for L =  3
   l= 3   rc=  1.859892   el=  0.003420   Ekb= -0.399672   kbcos= -0.001232

KBgen: Total number of  Kleinman-Bylander projectors:   16
atom: -------------------------------------------------------------------------

atom: SANKEY-TYPE ORBITALS:
atom: Selected multiple-zeta basis: split     

SPLIT: Orbitals with angular momentum L= 0

SPLIT: Basis orbitals for state 2s

SPLIT: PAO cut-off radius determined from an
SPLIT: energy shift=  0.020000 Ry

   izeta = 1
                 lambda =    1.000000
                     rc =    4.191849
                 energy =   -0.980459
                kinetic =    0.881507
    potential(screened) =   -1.861966
       potential(ionic) =   -5.449625

   izeta = 2
                 rmatch =    3.431921
              splitnorm =    0.150000
                 energy =   -0.849396
                kinetic =    1.300036
    potential(screened) =   -2.149433
       potential(ionic) =   -5.962781

SPLIT: Orbitals with angular momentum L= 1

SPLIT: Basis orbitals for state 2p

SPLIT: PAO cut-off radius determined from an
SPLIT: energy shift=  0.020000 Ry

   izeta = 1
                 lambda =    1.000000
                     rc =    4.993604
                 energy =   -0.366127
                kinetic =    2.463190
    potential(screened) =   -2.829316
       potential(ionic) =   -6.291180

   izeta = 2
                 rmatch =    3.518811
              splitnorm =    0.150000
                 energy =   -0.204163
                kinetic =    3.723883
    potential(screened) =   -3.928045
       potential(ionic) =   -7.766545

POLgen: Perturbative polarization orbital with L=  2

POLgen: Polarization orbital for state 2p

   izeta = 1
                     rc =    4.993604
                 energy =    1.232619
                kinetic =    2.527283
    potential(screened) =   -1.294664
       potential(ionic) =   -4.203101
atom: Total number of Sankey-type orbitals: 13

atm_pop: Valence configuration (for local Pseudopot. screening):
 2s( 2.00)                                                            
 2p( 2.00)                                                            
Vna: chval, zval:    4.00000   4.00000

Vna:  Cut-off radius for the neutral-atom potential:   4.993604
comcore: Pseudo-core radius Rcore=  1.791422

atom: _________________________________________________________________________

<basis_specs>
===============================================================================
n                    Z=   7    Mass=  14.010        Charge= 0.17977+309
Lmxo=1 Lmxkb= 3    BasisType=split      Semic=F
L=0  Nsemic=0  Cnfigmx=2
          i=1  nzeta=2  polorb=0  (2s)
            splnorm:   0.15000    
               vcte:    0.0000    
               rinn:    0.0000    
               qcoe:    0.0000    
               qyuk:    0.0000    
               qwid:   0.10000E-01
                rcs:    0.0000      0.0000    
            lambdas:    1.0000      1.0000    
L=1  Nsemic=0  Cnfigmx=2
          i=1  nzeta=2  polorb=1  (2p)
            splnorm:   0.15000    
               vcte:    0.0000    
               rinn:    0.0000    
               qcoe:    0.0000    
               qyuk:    0.0000    
               qwid:   0.10000E-01
                rcs:    0.0000      0.0000    
            lambdas:    1.0000      1.0000    
-------------------------------------------------------------------------------
L=0  Nkbl=1  erefs: 0.17977+309
L=1  Nkbl=1  erefs: 0.17977+309
L=2  Nkbl=1  erefs: 0.17977+309
L=3  Nkbl=1  erefs: 0.17977+309
===============================================================================
</basis_specs>

atom: Called for n                     (Z =   7)

read_vps: Pseudopotential generation method:
read_vps: ATM3      Troullier-Martins                       
Valence charge for ps generation:    5.00000

read_vps: Pseudopotential includes a core correction:
read_vps: Pseudo-core for xc-correction

xc_check: Exchange-correlation functional:
xc_check: Ceperley-Alder
xc_check: WARNING: Pseudopotential generated with GGA PBE functional
V l=0 = -2*Zval/r beyond r=  1.4606
V l=1 = -2*Zval/r beyond r=  1.4606
V l=2 = -2*Zval/r beyond r=  1.4606
V l=3 = -2*Zval/r beyond r=  1.4606
All V_l potentials equal beyond r=  1.4606
This should be close to max(r_c) in ps generation
All pots = -2*Zval/r beyond r=  1.4606

VLOCAL1: 99.0% of the norm of Vloc inside     20.347 Ry
VLOCAL1: 99.9% of the norm of Vloc inside     46.372 Ry
atom: Maximum radius for 4*pi*r*r*local-pseudopot. charge    1.76189
atom: Maximum radius for r*vlocal+2*Zval:    1.53550

KBgen: Kleinman-Bylander projectors: 
GHOST: No ghost state for L =  0
   l= 0   rc=  1.634559   el= -1.348537   Ekb=  5.297520   kbcos=  0.333054
GHOST: No ghost state for L =  1
   l= 1   rc=  1.614250   el= -0.512415   Ekb= -5.262296   kbcos= -0.428933
GHOST: No ghost state for L =  2
   l= 2   rc=  1.718383   el=  0.002346   Ekb= -1.271998   kbcos= -0.007619
GHOST: No ghost state for L =  3
   l= 3   rc=  1.761893   el=  0.003449   Ekb= -0.494630   kbcos= -0.001017

KBgen: Total number of  Kleinman-Bylander projectors:   16
atom: -------------------------------------------------------------------------

atom: SANKEY-TYPE ORBITALS:
atom: Selected multiple-zeta basis: split     

SPLIT: Orbitals with angular momentum L= 0

SPLIT: Basis orbitals for state 2s

SPLIT: PAO cut-off radius determined from an
SPLIT: energy shift=  0.020000 Ry

   izeta = 1
                 lambda =    1.000000
                     rc =    3.683980
                 energy =   -1.330014
                kinetic =    1.203086
    potential(screened) =   -2.533100
       potential(ionic) =   -8.093205

   izeta = 2
                 rmatch =    2.905100
              splitnorm =    0.150000
                 energy =   -1.134717
                kinetic =    1.810562
    potential(screened) =   -2.945280
       potential(ionic) =   -8.899916

SPLIT: Orbitals with angular momentum L= 1

SPLIT: Basis orbitals for state 2p

SPLIT: PAO cut-off radius determined from an
SPLIT: energy shift=  0.020000 Ry

   izeta = 1
                 lambda =    1.000000
                     rc =    4.388595
                 energy =   -0.493943
                kinetic =    3.501321
    potential(screened) =   -3.995264
       potential(ionic) =   -9.374806

   izeta = 2
                 rmatch =    2.978652
              splitnorm =    0.150000
                 energy =   -0.289183
                kinetic =    5.180785
    potential(screened) =   -5.469968
       potential(ionic) =  -11.438899

POLgen: Perturbative polarization orbital with L=  2

POLgen: Polarization orbital for state 2p

   izeta = 1
                     rc =    4.388595
                 energy =    1.759924
                kinetic =    3.542120
    potential(screened) =   -1.782196
       potential(ionic) =   -6.226799
atom: Total number of Sankey-type orbitals: 13

atm_pop: Valence configuration (for local Pseudopot. screening):
 2s( 2.00)                                                            
 2p( 3.00)                                                            
Vna: chval, zval:    5.00000   5.00000

Vna:  Cut-off radius for the neutral-atom potential:   4.388595
comcore: Pseudo-core radius Rcore=  1.554824

atom: _________________________________________________________________________

<basis_specs>
===============================================================================
h                    Z=   1    Mass=  1.0100        Charge= 0.17977+309
Lmxo=0 Lmxkb= 2    BasisType=split      Semic=F
L=0  Nsemic=0  Cnfigmx=1
          i=1  nzeta=2  polorb=1  (1s)
            splnorm:   0.15000    
               vcte:    0.0000    
               rinn:    0.0000    
               qcoe:    0.0000    
               qyuk:    0.0000    
               qwid:   0.10000E-01
                rcs:    0.0000      0.0000    
            lambdas:    1.0000      1.0000    
-------------------------------------------------------------------------------
L=0  Nkbl=1  erefs: 0.17977+309
L=1  Nkbl=1  erefs: 0.17977+309
L=2  Nkbl=1  erefs: 0.17977+309
===============================================================================
</basis_specs>

atom: Called for h                     (Z =   1)

read_vps: Pseudopotential generation method:
read_vps: ATM3      Troullier-Martins                       
Valence charge for ps generation:    1.00000

xc_check: Exchange-correlation functional:
xc_check: Ceperley-Alder
xc_check: WARNING: Pseudopotential generated with GGA PBE functional
V l=0 = -2*Zval/r beyond r=  1.2977
V l=1 = -2*Zval/r beyond r=  1.2815
V l=2 = -2*Zval/r beyond r=  1.2656
All V_l potentials equal beyond r=  1.2977
This should be close to max(r_c) in ps generation
All pots = -2*Zval/r beyond r=  1.2977

VLOCAL1: 99.0% of the norm of Vloc inside     25.776 Ry
VLOCAL1: 99.9% of the norm of Vloc inside     58.745 Ry
atom: Maximum radius for 4*pi*r*r*local-pseudopot. charge    1.52711
atom: Maximum radius for r*vlocal+2*Zval:    1.28155

KBgen: Kleinman-Bylander projectors: 
GHOST: No ghost state for L =  0
   l= 0   rc=  1.434438   el= -0.456815   Ekb= -1.960338   kbcos= -0.349997
GHOST: No ghost state for L =  1
   l= 1   rc=  1.508111   el=  0.001431   Ekb= -0.423993   kbcos= -0.025386
GHOST: No ghost state for L =  2
   l= 2   rc=  1.546352   el=  0.002365   Ekb= -0.376562   kbcos= -0.002012

KBgen: Total number of  Kleinman-Bylander projectors:    9
atom: -------------------------------------------------------------------------

atom: SANKEY-TYPE ORBITALS:
atom: Selected multiple-zeta basis: split     

SPLIT: Orbitals with angular momentum L= 0

SPLIT: Basis orbitals for state 1s

SPLIT: PAO cut-off radius determined from an
SPLIT: energy shift=  0.020000 Ry

   izeta = 1
                 lambda =    1.000000
                     rc =    4.828263
                 energy =   -0.438372
                kinetic =    0.921576
    potential(screened) =   -1.359947
       potential(ionic) =   -1.906664

   izeta = 2
                 rmatch =    3.903467
              splitnorm =    0.150000
                 energy =   -0.330751
                kinetic =    1.475177
    potential(screened) =   -1.805928
       potential(ionic) =   -2.389550

POLgen: Perturbative polarization orbital with L=  1

POLgen: Polarization orbital for state 1s

   izeta = 1
                     rc =    4.828263
                 energy =    0.711580
                kinetic =    1.391494
    potential(screened) =   -0.679914
       potential(ionic) =   -1.168115
atom: Total number of Sankey-type orbitals:  5

atm_pop: Valence configuration (for local Pseudopot. screening):
 1s( 1.00)                                                            
Vna: chval, zval:    1.00000   1.00000

Vna:  Cut-off radius for the neutral-atom potential:   4.828263

atom: _________________________________________________________________________

prinput: Basis input ----------------------------------------------------------

PAO.BasisType split     

%block ChemicalSpeciesLabel
    1    6 c                       # Species index, atomic number, species label
    2    7 n                       # Species index, atomic number, species label
    3    1 h                       # Species index, atomic number, species label
%endblock ChemicalSpeciesLabel

%block PAO.Basis                 # Define Basis set
c                     2                    # Species label, number of l-shells
 n=2   0   2                         # n, l, Nzeta 
   4.192      3.432   
   1.000      1.000   
 n=2   1   2 P   1                   # n, l, Nzeta, Polarization, NzetaPol
   4.994      3.519   
   1.000      1.000   
n                     2                    # Species label, number of l-shells
 n=2   0   2                         # n, l, Nzeta 
   3.684      2.905   
   1.000      1.000   
 n=2   1   2 P   1                   # n, l, Nzeta, Polarization, NzetaPol
   4.389      2.979   
   1.000      1.000   
h                     1                    # Species label, number of l-shells
 n=1   0   2 P   1                   # n, l, Nzeta, Polarization, NzetaPol
   4.828      3.903   
   1.000      1.000   
%endblock PAO.Basis

prinput: ----------------------------------------------------------------------

coor:   Atomic-coordinates input format  =     Cartesian coordinates
coor:                                          (in Angstroms)

siesta: Atomic coordinates (Bohr) and species
siesta:      1.82718  -0.24022   0.19965  1        1
siesta:      4.66746  -0.15260   0.17788  1        2
siesta:      6.01727  -2.42170   0.14558  1        3
siesta:      8.62498  -2.32538   0.10707  1        4
siesta:      9.96706  -0.16114   0.08765  2        5
siesta:      8.68915   2.03289   0.10726  1        6
siesta:     10.06264   4.26806   0.04456  1        7
siesta:      8.88616   6.63043   0.03825  1        8
siesta:      6.27062   6.77698   0.12625  1        9
siesta:      4.84571   4.56173   0.20046  1       10
siesta:      6.02035   2.15939   0.16930  1       11
siesta:      1.12552  -2.18562   0.11072  3       12
siesta:      1.06475   0.76175  -1.44201  3       13
siesta:      1.09309   0.61029   1.93665  3       14
siesta:      5.06613  -4.23767   0.14094  3       15
siesta:      9.74521  -4.04524   0.07933  3       16
siesta:     12.11423   4.16454  -0.01602  3       17
siesta:     10.02107   8.34031  -0.03660  3       18
siesta:      5.33585   8.60572   0.12848  3       19
siesta:      2.80005   4.72838   0.27205  3       20

siesta: System type = molecule  

initatomlists: Number of atoms, orbitals, and projectors:     20   188   257

coxmol: Writing XMOL coordinates into file siesta.xyz                                                          

siesta: ******************** Simulation parameters ****************************
siesta:
siesta: The following are some of the parameters of the simulation.
siesta: A complete list of the parameters used, including default values,
siesta: can be found in file out.fdf
siesta:
redata: Spin configuration                          = collinear
redata: Number of spin components                   = 2
redata: Time-Reversal Symmetry                      = T
redata: Spin spiral                                 = F
redata: Long output                                 =   T
redata: Number of Atomic Species                    =        3
redata: Charge density info will appear in .RHO file
redata: Write Mulliken Pop.                         = Atomic and Orbital charges
redata: Matel table size (NRTAB)                    =     1024
redata: Mesh Cutoff                                 =   100.0000 Ry
redata: Net charge of the system                    =     0.0000 |e|
redata: Min. number of SCF Iter                     =        0
redata: Max. number of SCF Iter                     =      100
redata: SCF convergence failure will abort job
redata: SCF mix quantity                            = Hamiltonian
redata: Mix DM or H after convergence               =   F
redata: Recompute H after scf cycle                 =   F
redata: Mix DM in first SCF step                    =   T
redata: Write Pulay info on disk                    =   F
redata: New DM Occupancy tolerance                  = 0.000000000001
redata: No kicks to SCF
redata: DM Mixing Weight for Kicks                  =     0.5000
redata: Require Harris convergence for SCF          =   F
redata: Harris energy tolerance for SCF             =     0.000100 eV
redata: Require DM convergence for SCF              =   T
redata: DM tolerance for SCF                        =     0.001000
redata: Require EDM convergence for SCF             =   F
redata: EDM tolerance for SCF                       =     0.001000 eV
redata: Require H convergence for SCF               =   T
redata: Hamiltonian tolerance for SCF               =     0.001000 eV
redata: Require (free) Energy convergence for SCF   =   F
redata: (free) Energy tolerance for SCF             =     0.000100 eV
redata: Antiferro initial spin density              =   F
redata: Using Saved Data (generic)                  =   F
redata: Use continuation files for DM               =   F
redata: Neglect nonoverlap interactions             =   F
redata: Method of Calculation                       = Diagonalization
redata: Electronic Temperature                      =   299.9869 K
redata: Fix the spin of the system                  =   F
redata: Max. number of TDED Iter                    =        1
redata: Number of TDED substeps                     =        3
redata: Dynamics option                             = Nose thermostat MD run
redata: Initial MD time step                        =        1
redata:   Final MD time step                        =      250
redata: Length of MD time step                      =     1.0000 fs
redata: Initial Temperature of MD run               =   300.0000 K
redata: Perform a MD quench                         =   F
redata: Nose mass                                   =  1360.5800 eV/fs**2
redata: Target Temperature                          =   300.0000 Kelvin
mix.SCF: Pulay mixing                            = Pulay
mix.SCF:    Variant                              = stable
mix.SCF:    History steps                        = 3
mix.SCF:    Linear mixing weight                 =     0.250000
mix.SCF:    Mixing weight                        =     0.250000
mix.SCF:    SVD condition                        = 0.1000E-07
mix.SCF: Spin-component mixing                   all
redata: ***********************************************************************

%block SCF.Mixers
  Pulay
%endblock SCF.Mixers

%block SCF.Mixer.Pulay
  # Mixing method
  method pulay
  variant stable

  # Mixing options
  weight 0.2500
  weight.linear 0.2500
  history 3
%endblock SCF.Mixer.Pulay

Size of DM history Fstack: 1
Total number of electrons:    54.000000
Total ionic charge:    54.000000
 Kpoints in:            1 . Kpoints trimmed:            1

siesta: k-point coordinates (Bohr**-1) and weights:
siesta:          1  0.000000E+00  0.000000E+00  0.000000E+00   0.100000E+01

siesta: k-grid: Number of k-points =         1
siesta: k-points from Monkhorst-Pack grid
siesta: k-cutoff (effective) =     4.894 Ang
siesta: k-point supercell and displacements
siesta: k-grid:    1   0   0      0.000
siesta: k-grid:    0   1   0      0.000
siesta: k-grid:    0   0   1      0.000
 Kpoints in:            1 . Kpoints trimmed:            1

siesta: PDOS k-point coordinates (Bohr**-1) and weights:
siesta:          1  0.000000E+00  0.000000E+00  0.000000E+00   0.100000E+01

siesta: PDOS k-grid: Number of k-points =         1
siesta: PDOS k-points from Monkhorst-Pack grid
siesta: PDOS k-cutoff (effective) =     0.000 Ang
siesta: PDOS k-point supercell and displacements
siesta: k-grid:    1   0   0      0.000
siesta: k-grid:    0   1   0      0.000
siesta: k-grid:    0   0   1      0.000

diag: Algorithm                                     = D&C
diag: Used triangular part                          = Lower
diag: Absolute tolerance                            =  0.100E-15
diag: Orthogonalization factor                      =  0.100E-05
diag: Memory factor                                 =  1.0000
Using LatticeConstant from fdf file for BandLinesScale:    1.889727 Bohr
Beware any cell changes by the end of the run
Using LatticeConstant from fdf file for BandLinesScale:    1.889727 Bohr
Beware any cell changes by the end of the run


ts: **************************************************************
ts: Save H and S matrices                           =    F
ts: Save DM and EDM matrices                        =    F
ts: Only save the overlap matrix S                  =    F
ts: **************************************************************

************************ Begin: TS CHECKS AND WARNINGS ************************
************************ End: TS CHECKS AND WARNINGS **************************


                     ====================================
                        Begin MD step =      1
                     ====================================

outcoor: Atomic coordinates (Ang):                          
    0.96690000   -0.12712000    0.10565000   1       1  c
    2.46991000   -0.08075000    0.09413000   1       2  c
    3.18420000   -1.28151000    0.07704000   1       3  c
    4.56414000   -1.23054000    0.05666000   1       4  c
    5.27434000   -0.08527000    0.04638000   2       5  n
    4.59810000    1.07576000    0.05676000   1       6  c
    5.32492000    2.25856000    0.02358000   1       7  c
    4.70235000    3.50867000    0.02024000   1       8  c
    3.31827000    3.58622000    0.06681000   1       9  c
    2.56424000    2.41396000    0.10608000   1      10  c
    3.18583000    1.14270000    0.08959000   1      11  c
    0.59560000   -1.15658000    0.05859000   3      12  h
    0.56344000    0.40310000   -0.76308000   3      13  h
    0.57844000    0.32295000    1.02483000   3      14  h
    2.68088000   -2.24248000    0.07458000   3      15  h
    5.15694000   -2.14065000    0.04198000   3      16  h
    6.41057000    2.20378000   -0.00848000   3      17  h
    5.30292000    4.41350000   -0.01937000   3      18  h
    2.82361000    4.55395000    0.06799000   3      19  h
    1.48172000    2.50215000    0.14396000   3      20  h

outcell: Unit cell vectors (Ang):
       13.847130    0.000000    0.000000
        0.000000   14.796430    0.000000
        0.000000    0.000000    9.787910

outcell: Cell vector modules (Ang)   :   13.847130   14.796430    9.787910
outcell: Cell angles (23,13,12) (deg):     90.0000     90.0000     90.0000
outcell: Cell volume (Ang**3)        :   2005.4262
<dSpData1D:S at geom step 1
  <sparsity:sparsity for geom step 1
    nrows_g=188 nrows=188 sparsity=.9784 nnzs=34580, refcount: 7>
  <dData1D:(new from dSpData1D) n=34580, refcount: 1>
refcount: 1>
new_DM -- step:     1
Initializing Density Matrix...
DM filled with atomic data:
<dSpData2D:DM initialized from atoms
  <sparsity:sparsity for geom step 1
    nrows_g=188 nrows=188 sparsity=.9784 nnzs=34580, refcount: 8>
  <dData2D:DM n=34580 m=2, refcount: 1>
refcount: 1>
     spin moment: S , {S} =   32.00000       0.0       0.0  32.00000
No. of atoms with KB's overlaping orbs in proc 0. Max # of overlaps:      20     173

InitMesh: MESH = 90 x 90 x 60 = 486000
InitMesh: Mesh cutoff (required, used) =   100.000   102.252 Ry
New grid distribution [1]: sub = 2

stepf: Fermi-Dirac step function

siesta: Program's energy decomposition (eV):
siesta: Ebs     =      -546.134037
siesta: Eions   =      3141.017114
siesta: Ena     =       654.343218
siesta: Ekin    =      1473.632367
siesta: Enl     =      -208.093725
siesta: Eso     =         0.000000
siesta: Edftu   =         0.000000
siesta: DEna    =       -88.673759
siesta: DUscf   =        11.543039
siesta: DUext   =         0.000000
siesta: Exc     =      -728.627316
siesta: eta*DQ  =         0.000000
siesta: Emadel  =         0.000000
siesta: Emeta   =         0.000000
siesta: Emolmec =         0.000000
siesta: Ekinion =         0.000000
siesta: Eharris =     -2025.868694
siesta: Etot    =     -2026.893289
siesta: FreeEng =     -2026.916559

        iscf     Eharris(eV)        E_KS(eV)     FreeEng(eV)     dDmax    Ef(eV) dHmax(eV)
   scf:    1    -2025.868694    -2026.893289    -2026.916559  0.982369 -5.586713  8.595618
     spin moment: S , {S} =    1.97623       0.0       0.0   1.97623
timer: Routine,Calls,Time,% = IterSCF        1       0.778   4.44
   scf:    2    -2037.371586    -2032.441365    -2032.441380  0.119855 -4.707163  6.217688
     spin moment: S , {S} =    0.00005       0.0       0.0   0.00005
   scf:    3    -2033.846804    -2033.430858    -2033.430858  0.093552 -3.763002  2.277578
     spin moment: S , {S} =    0.00000       0.0       0.0   0.00000
   scf:    4    -2033.698837    -2033.586499    -2033.586499  0.021844 -3.293004  1.278042
     spin moment: S , {S} =    0.00000       0.0       0.0   0.00000
   scf:    5    -2033.684072    -2033.636846    -2033.636846  0.015297 -3.123515  0.659736
     spin moment: S , {S} =    0.00000       0.0       0.0   0.00000
   scf:    6    -2033.690552    -2033.663913    -2033.663913  0.021583 -2.902325  0.118006
     spin moment: S , {S} =    0.00000       0.0       0.0   0.00000
   scf:    7    -2033.667119    -2033.665534    -2033.665534  0.003024 -2.888052  0.069187
     spin moment: S , {S} =    0.00000       0.0       0.0   0.00000
   scf:    8    -2033.667339    -2033.666454    -2033.666454  0.002805 -2.881472  0.042751
     spin moment: S , {S} =    0.00000       0.0       0.0   0.00000
   scf:    9    -2033.666902    -2033.666668    -2033.666668  0.001395 -2.882188  0.025599
     spin moment: S , {S} =    0.00000       0.0       0.0   0.00000
   scf:   10    -2033.666826    -2033.666745    -2033.666745  0.000591 -2.882884  0.017784
     spin moment: S , {S} =    0.00000       0.0       0.0   0.00000
   scf:   11    -2033.666815    -2033.666782    -2033.666782  0.000332 -2.882382  0.012822
     spin moment: S , {S} =    0.00000       0.0       0.0   0.00000
   scf:   12    -2033.666838    -2033.666808    -2033.666808  0.000463 -2.880865  0.006211
     spin moment: S , {S} =    0.00000       0.0       0.0   0.00000
   scf:   13    -2033.666821    -2033.666814    -2033.666814  0.000198 -2.879868  0.003062
     spin moment: S , {S} =    0.00000       0.0       0.0   0.00000
   scf:   14    -2033.666817    -2033.666815    -2033.666815  0.000086 -2.879423  0.001666
     spin moment: S , {S} =    0.00000       0.0       0.0   0.00000
   scf:   15    -2033.666816    -2033.666816    -2033.666816  0.000035 -2.879377  0.001045
     spin moment: S , {S} =   -0.00000       0.0       0.0  -0.00000
   scf:   16    -2033.666816    -2033.666816    -2033.666816  0.000015 -2.879420  0.000803
     spin moment: S , {S} =    0.00000       0.0       0.0   0.00000

SCF Convergence by DM+H criterion
max |DM_out - DM_in|         :     0.0000150195
max |H_out - H_in|      (eV) :     0.0008028879
SCF cycle converged after 16 iterations

Using DM_out to compute the final energy and forces
No. of atoms with KB's overlaping orbs in proc 0. Max # of overlaps:      20     173

siesta: E_KS(eV) =            -2033.6668

siesta: E_KS - E_eggbox =     -2033.6668
     spin moment: S , {S} =    0.00000       0.0       0.0   0.00000

siesta: Atomic forces (eV/Ang):
     1    0.945722    0.037793   -0.002641
     2   -0.712238   -0.926980    0.011189
     3   -0.790533    1.039361    0.007742
     4    1.600928    1.876161   -0.038537
     5   -0.174489   -1.728473   -0.626257
     6   -0.142056   -0.710024   -0.013377
     7    0.256475    1.932211   -0.061213
     8    0.888182   -1.144467   -0.024559
     9   -0.901179   -0.849200    0.023907
    10    0.434280    0.518348   -0.022070
    11   -0.873734    0.204257    0.041305
    12   -0.090280   -0.586702   -0.003421
    13   -0.344014    0.457701   -0.445173
    14   -0.343478    0.403899    0.500808
    15   -0.493261   -0.640781    0.002903
    16    0.461595   -0.727889   -0.000587
    17    0.677812   -0.245341   -0.015543
    18    0.410454    0.563306   -0.014036
    19   -0.359633    0.589556    0.015468
    20   -0.762142   -0.077889    0.017281
----------------------------------------
   Tot   -0.311589   -0.015152   -0.646810
----------------------------------------
   Max    1.932211
   Res    0.677803    sqrt( Sum f_i^2 / 3N )
----------------------------------------
   Max    1.932211    constrained

Stress tensor Voigt[x,y,z,yz,xz,xy] (kbar):       -8.17       -2.32       -1.08       -0.12        0.13        0.86
(Free)E + p*V (eV/cell)    -2028.8372
Target enthalpy (eV/cell)    -2033.6668

siesta: Stress tensor (static) (eV/Ang**3):
        -0.004901    0.000498    0.000134
         0.000498   -0.001223    0.000006
         0.000134    0.000006   -0.000371

siesta: Pressure (static):          3.46893211  kBar

siesta: Stress tensor (total) (eV/Ang**3):
        -0.005102    0.000535    0.000080
         0.000535   -0.001449   -0.000075
         0.000080   -0.000075   -0.000674

siesta: Pressure (total):          3.85851157  kBar

mulliken: Atomic and Orbital Populations:

mulliken: Spin UP 

Species: c                   
Atom  Qatom  Qorb
               2s      2s      2py     2pz     2px     2py     2pz     2px     
               3Pdxy   3Pdyz   3Pdz2   3Pdxz   3Pdx2-y2
   1  1.702  -0.038   0.405   0.065   0.061   0.199   0.358   0.355   0.253
              0.011   0.005   0.006   0.012   0.009
   2  1.956   0.222   0.268   0.230   0.353   0.207   0.252   0.088   0.250
              0.026   0.017   0.002   0.016   0.025
   3  1.885   0.148   0.297   0.086   0.389   0.208   0.348   0.082   0.269
              0.019   0.006   0.001   0.012   0.019
   4  1.951   0.188   0.277   0.175   0.383   0.226   0.282   0.072   0.256
              0.035   0.010   0.002   0.016   0.029
   6  2.060   0.251   0.246   0.291   0.369   0.251   0.207   0.094   0.236
              0.037   0.021   0.003   0.017   0.036
   7  1.879   0.157   0.297   0.232   0.374   0.053   0.250   0.083   0.375
              0.016   0.016   0.001   0.004   0.021
   8  1.872   0.146   0.299   0.112   0.376   0.179   0.332   0.083   0.284
              0.024   0.007   0.001   0.013   0.017
   9  1.873   0.144   0.300   0.091   0.376   0.197   0.347   0.084   0.271
              0.022   0.006   0.002   0.014   0.019
  10  1.892   0.155   0.297   0.248   0.391   0.057   0.235   0.077   0.370
              0.016   0.016   0.002   0.004   0.025
  11  1.990   0.220   0.264   0.206   0.365   0.237   0.266   0.100   0.253
              0.023   0.016   0.002   0.014   0.025

Species: n                   
Atom  Qatom  Qorb
               2s      2s      2py     2pz     2px     2py     2pz     2px     
               3Pdxy   3Pdyz   3Pdz2   3Pdxz   3Pdx2-y2
   5  2.392   0.292   0.310   0.154   0.443   0.709   0.317   0.083   0.040
              0.015   0.010   0.004   0.006   0.009

Species: h                   
Atom  Qatom  Qorb
               1s      1s      2Ppy    2Ppz    2Ppx    
  12  0.597   0.374   0.174   0.016   0.018   0.015
  13  0.599   0.367   0.179   0.019   0.016   0.018
  14  0.600   0.369   0.177   0.019   0.016   0.019
  15  0.628   0.415   0.157   0.021   0.019   0.015
  16  0.618   0.411   0.161   0.015   0.015   0.015
  17  0.628   0.417   0.155   0.015   0.018   0.023
  18  0.625   0.416   0.155   0.020   0.018   0.016
  19  0.626   0.417   0.154   0.021   0.019   0.015
  20  0.628   0.414   0.157   0.013   0.019   0.025

mulliken: Qtot =       27.000

mulliken: Spin DOWN 

Species: c                   
Atom  Qatom  Qorb
               2s      2s      2py     2pz     2px     2py     2pz     2px     
               3Pdxy   3Pdyz   3Pdz2   3Pdxz   3Pdx2-y2
   1  1.702  -0.038   0.405   0.065   0.061   0.199   0.358   0.355   0.253
              0.011   0.005   0.006   0.012   0.009
   2  1.956   0.222   0.268   0.230   0.353   0.207   0.252   0.088   0.250
              0.026   0.017   0.002   0.016   0.025
   3  1.885   0.148   0.297   0.086   0.389   0.208   0.348   0.082   0.269
              0.019   0.006   0.001   0.012   0.019
   4  1.951   0.188   0.277   0.175   0.383   0.226   0.282   0.072   0.256
              0.035   0.010   0.002   0.016   0.029
   6  2.060   0.251   0.246   0.291   0.369   0.251   0.207   0.094   0.236
              0.037   0.021   0.003   0.017   0.036
   7  1.879   0.157   0.297   0.232   0.374   0.053   0.250   0.083   0.375
              0.016   0.016   0.001   0.004   0.021
   8  1.872   0.146   0.299   0.112   0.376   0.179   0.332   0.083   0.284
              0.024   0.007   0.001   0.013   0.017
   9  1.873   0.144   0.300   0.091   0.376   0.197   0.347   0.084   0.271
              0.022   0.006   0.002   0.014   0.019
  10  1.892   0.155   0.297   0.248   0.391   0.057   0.235   0.077   0.370
              0.016   0.016   0.002   0.004   0.025
  11  1.990   0.220   0.264   0.206   0.365   0.237   0.266   0.100   0.253
              0.023   0.016   0.002   0.014   0.025

Species: n                   
Atom  Qatom  Qorb
               2s      2s      2py     2pz     2px     2py     2pz     2px     
               3Pdxy   3Pdyz   3Pdz2   3Pdxz   3Pdx2-y2
   5  2.392   0.292   0.310   0.154   0.443   0.709   0.317   0.082   0.040
              0.015   0.010   0.004   0.006   0.009

Species: h                   
Atom  Qatom  Qorb
               1s      1s      2Ppy    2Ppz    2Ppx    
  12  0.597   0.374   0.174   0.016   0.018   0.015
  13  0.599   0.367   0.179   0.019   0.016   0.018
  14  0.600   0.369   0.177   0.019   0.016   0.019
  15  0.627   0.415   0.157   0.021   0.019   0.015
  16  0.618   0.411   0.161   0.015   0.015   0.015
  17  0.628   0.417   0.155   0.015   0.018   0.023
  18  0.625   0.416   0.155   0.020   0.018   0.016
  19  0.626   0.417   0.154   0.021   0.019   0.015
  20  0.628   0.414   0.157   0.013   0.019   0.025

mulliken: Qtot =       27.000

siesta: Temp_ion =     300.000 K

                     ====================================
                        Begin MD step =      2
                     ====================================

outcoor: Atomic coordinates (Ang):                          
    0.97292285   -0.13740987    0.10751972   1       1  c
    2.46814171   -0.07944584    0.09361750   1       2  c
    3.18643873   -1.28463269    0.07256254   1       3  c
    4.56371590   -1.22647158    0.06261787   1       4  c
    5.27092857   -0.08205538    0.03975957   2       5  n
    4.59315257    1.07963639    0.07020279   1       6  c
    5.32656293    2.26452690    0.02397062   1       7  c
    4.69836269    3.50268292    0.01362111   1       8  c
    3.32171265    3.58228793    0.06089028   1       9  c
    2.56840141    2.41726598    0.10859833   1      10  c
    3.18742799    1.14588821    0.09003199   1      11  c
    0.61197812   -1.16837202    0.07655143   3      12  h
    0.55843700    0.41055025   -0.76440994   3      13  h
    0.54597713    0.30099470    1.00656200   3      14  h
    2.67238389   -2.25249199    0.08122643   3      15  h
    5.14863472   -2.14410393    0.03616148   3      16  h
    6.41389505    2.19173463   -0.01937073   3      17  h
    5.32415306    4.41107308    0.00058979   3      18  h
    2.80995506    4.57487576    0.06338747   3      19  h
    1.45966522    2.51007997    0.14472824   3      20  h

outcell: Unit cell vectors (Ang):
       13.847130    0.000000    0.000000
        0.000000   14.796430    0.000000
        0.000000    0.000000    9.787910

outcell: Cell vector modules (Ang)   :   13.847130   14.796430    9.787910
outcell: Cell angles (23,13,12) (deg):     90.0000     90.0000     90.0000
outcell: Cell volume (Ang**3)        :   2005.4262
<dSpData1D:S at geom step 2
  <sparsity:sparsity for geom step 2
    nrows_g=188 nrows=188 sparsity=.9779 nnzs=34564, refcount: 7>
  <dData1D:(new from dSpData1D) n=34564, refcount: 1>
refcount: 1>
new_DM -- step:     2
Re-using DM from previous geometries...
Number of DMs in history: 1
 DM extrapolation coefficients: 
1   1.00000
New DM after history re-use:
<dSpData2D:SpM extrapolated using coords
  <sparsity:sparsity for geom step 2
    nrows_g=188 nrows=188 sparsity=.9779 nnzs=34564, refcount: 9>
  <dData2D:(temp array for extrapolation) n=34564 m=2, refcount: 1>
refcount: 1>
     spin moment: S , {S} =   -0.00000       0.0       0.0  -0.00000
No. of atoms with KB's overlaping orbs in proc 0. Max # of overlaps:      20     173

InitMesh: MESH = 90 x 90 x 60 = 486000
InitMesh: Mesh cutoff (required, used) =   100.000   102.252 Ry
New grid distribution [1]: sub = 2

        iscf     Eharris(eV)        E_KS(eV)     FreeEng(eV)     dDmax    Ef(eV) dHmax(eV)
   scf:    1    -2033.744998    -2033.670197    -2033.670197  0.008220 -2.786085  0.531669
     spin moment: S , {S} =   -0.00000       0.0       0.0  -0.00000
   scf:    2    -2033.341061    -2033.579361    -2033.579361  0.013559 -3.150016  1.387878
     spin moment: S , {S} =    0.00000       0.0       0.0   0.00000
   scf:    3    -2033.713315    -2033.686934    -2033.686934  0.009886 -2.890702  0.042307
     spin moment: S , {S} =    0.00000       0.0       0.0   0.00000
   scf:    4    -2033.687313    -2033.687150    -2033.687150  0.000321 -2.898225  0.012037
     spin moment: S , {S} =   -0.00000       0.0       0.0  -0.00000
   scf:    5    -2033.687190    -2033.687169    -2033.687169  0.000084 -2.898840  0.004070
     spin moment: S , {S} =    0.00000       0.0       0.0   0.00000
   scf:    6    -2033.687172    -2033.687168    -2033.687168  0.000062 -2.898558  0.001590
     spin moment: S , {S} =    0.00000       0.0       0.0   0.00000
   scf:    7    -2033.687169    -2033.687169    -2033.687169  0.000018 -2.898557  0.000836
     spin moment: S , {S} =    0.00000       0.0       0.0   0.00000

SCF Convergence by DM+H criterion
max |DM_out - DM_in|         :     0.0000181384
max |H_out - H_in|      (eV) :     0.0008357217
SCF cycle converged after 7 iterations

Using DM_out to compute the final energy and forces
No. of atoms with KB's overlaping orbs in proc 0. Max # of overlaps:      20     173

siesta: E_KS(eV) =            -2033.6872
     spin moment: S , {S} =    0.00000       0.0       0.0   0.00000

siesta: Atomic forces (eV/Ang):
     1    0.594020    0.327772   -0.561559
     2   -0.394760   -1.018336    0.083760
     3   -1.219153    0.998909    0.125404
     4    1.651042    1.637174   -0.204180
     5   -0.164792   -1.528365   -0.466727
     6    0.281720   -0.655946   -0.260964
     7    0.247599    1.301962   -0.055106
     8    1.657474   -0.335289    0.061543
     9   -1.626121    0.292560    0.067847
    10   -0.634392    0.428040   -0.046423
    11   -1.177914    0.038447    0.157177
    12   -0.125279   -0.665486   -0.152251
    13   -0.165779    0.087408   -0.126595
    14   -0.294406    0.562193    0.795944
    15   -0.265052   -0.293374   -0.019481
    16    0.485045   -0.630084    0.015021
    17    0.558717   -0.161209    0.014292
    18   -0.003200    0.154018   -0.074689
    19    0.135743   -0.301013    0.010188
    20    0.144020   -0.155961   -0.007300
----------------------------------------
   Tot   -0.315467    0.083421   -0.644097
----------------------------------------
   Max    1.657474
   Res    0.649629    sqrt( Sum f_i^2 / 3N )
----------------------------------------
   Max    1.657474    constrained

Stress tensor Voigt[x,y,z,yz,xz,xy] (kbar):       -7.69       -1.23       -1.09       -0.50        0.19        0.75
(Free)E + p*V (eV/cell)    -2029.5073
Target enthalpy (eV/cell)    -2033.6872

siesta: Stress tensor (static) (eV/Ang**3):
        -0.004602    0.000430    0.000172
         0.000429   -0.000544   -0.000229
         0.000172   -0.000229   -0.000378

siesta: Pressure (static):          2.94983454  kBar

siesta: Stress tensor (total) (eV/Ang**3):
        -0.004802    0.000467    0.000118
         0.000467   -0.000769   -0.000311
         0.000118   -0.000311   -0.000681

siesta: Pressure (total):          3.33941401  kBar

mulliken: Atomic and Orbital Populations:

mulliken: Spin UP 

Species: c                   
Atom  Qatom  Qorb
               2s      2s      2py     2pz     2px     2py     2pz     2px     
               3Pdxy   3Pdyz   3Pdz2   3Pdxz   3Pdx2-y2
   1  1.704  -0.035   0.403   0.064   0.069   0.192   0.359   0.349   0.259
              0.011   0.005   0.006   0.013   0.009
   2  1.956   0.222   0.268   0.231   0.355   0.208   0.251   0.087   0.250
              0.026   0.017   0.002   0.016   0.025
   3  1.886   0.152   0.296   0.091   0.390   0.207   0.342   0.081   0.269
              0.019   0.006   0.001   0.012   0.018
   4  1.953   0.190   0.276   0.174   0.382   0.229   0.283   0.072   0.254
              0.035   0.010   0.002   0.017   0.029
   6  2.058   0.250   0.246   0.291   0.369   0.251   0.207   0.094   0.237
              0.037   0.021   0.003   0.017   0.036
   7  1.879   0.157   0.297   0.233   0.373   0.054   0.250   0.083   0.374
              0.016   0.016   0.001   0.004   0.021
   8  1.875   0.149   0.297   0.119   0.374   0.175   0.326   0.085   0.287
              0.024   0.007   0.001   0.013   0.017
   9  1.878   0.152   0.296   0.098   0.376   0.199   0.339   0.085   0.270
              0.022   0.006   0.001   0.014   0.019
  10  1.896   0.162   0.293   0.250   0.391   0.065   0.235   0.077   0.360
              0.016   0.016   0.002   0.004   0.025
  11  1.991   0.219   0.264   0.205   0.364   0.237   0.266   0.101   0.253
              0.023   0.016   0.002   0.014   0.025

Species: n                   
Atom  Qatom  Qorb
               2s      2s      2py     2pz     2px     2py     2pz     2px     
               3Pdxy   3Pdyz   3Pdz2   3Pdxz   3Pdx2-y2
   5  2.392   0.292   0.310   0.154   0.443   0.708   0.317   0.083   0.041
              0.015   0.010   0.004   0.006   0.009

Species: h                   
Atom  Qatom  Qorb
               1s      1s      2Ppy    2Ppz    2Ppx    
  12  0.598   0.374   0.175   0.016   0.018   0.015
  13  0.597   0.368   0.176   0.019   0.016   0.018
  14  0.599   0.368   0.178   0.019   0.016   0.018
  15  0.626   0.415   0.156   0.021   0.019   0.015
  16  0.617   0.412   0.160   0.015   0.015   0.015
  17  0.628   0.417   0.155   0.015   0.018   0.023
  18  0.623   0.417   0.153   0.020   0.018   0.016
  19  0.621   0.419   0.150   0.021   0.018   0.015
  20  0.624   0.415   0.154   0.012   0.018   0.025

mulliken: Qtot =       27.000

mulliken: Spin DOWN 

Species: c                   
Atom  Qatom  Qorb
               2s      2s      2py     2pz     2px     2py     2pz     2px     
               3Pdxy   3Pdyz   3Pdz2   3Pdxz   3Pdx2-y2
   1  1.704  -0.035   0.403   0.064   0.069   0.192   0.359   0.349   0.259
              0.011   0.005   0.006   0.013   0.009
   2  1.956   0.222   0.268   0.231   0.355   0.208   0.251   0.087   0.250
              0.026   0.017   0.002   0.016   0.025
   3  1.886   0.152   0.296   0.091   0.390   0.207   0.342   0.081   0.269
              0.019   0.006   0.001   0.012   0.018
   4  1.953   0.190   0.276   0.174   0.382   0.229   0.283   0.072   0.254
              0.035   0.010   0.002   0.017   0.029
   6  2.058   0.250   0.246   0.291   0.369   0.251   0.207   0.094   0.237
              0.037   0.021   0.003   0.017   0.036
   7  1.879   0.157   0.297   0.233   0.373   0.054   0.250   0.083   0.374
              0.016   0.016   0.001   0.004   0.021
   8  1.875   0.149   0.297   0.119   0.374   0.175   0.326   0.085   0.287
              0.024   0.007   0.001   0.013   0.017
   9  1.878   0.152   0.296   0.098   0.376   0.199   0.339   0.085   0.270
              0.022   0.006   0.001   0.014   0.019
  10  1.896   0.162   0.293   0.250   0.391   0.065   0.235   0.077   0.360
              0.016   0.016   0.002   0.004   0.025
  11  1.991   0.219   0.264   0.205   0.364   0.237   0.266   0.101   0.253
              0.023   0.016   0.002   0.014   0.025

Species: n                   
Atom  Qatom  Qorb
               2s      2s      2py     2pz     2px     2py     2pz     2px     
               3Pdxy   3Pdyz   3Pdz2   3Pdxz   3Pdx2-y2
   5  2.392   0.292   0.310   0.154   0.443   0.708   0.317   0.083   0.041
              0.015   0.010   0.004   0.006   0.009

Species: h                   
Atom  Qatom  Qorb
               1s      1s      2Ppy    2Ppz    2Ppx    
  12  0.598   0.374   0.175   0.016   0.018   0.015
  13  0.597   0.368   0.176   0.019   0.016   0.018
  14  0.599   0.368   0.178   0.019   0.016   0.018
  15  0.626   0.415   0.156   0.021   0.019   0.015
  16  0.617   0.412   0.160   0.015   0.015   0.015
  17  0.628   0.417   0.155   0.015   0.018   0.023
  18  0.623   0.417   0.153   0.020   0.018   0.016
  19  0.621   0.419   0.150   0.021   0.018   0.015
  20  0.624   0.415   0.154   0.012   0.018   0.025

mulliken: Qtot =       27.000

siesta: Temp_ion =     307.629 K

                     ====================================
                        Begin MD step =      3
                     ====================================

outcoor: Atomic coordinates (Ang):                          
    0.97941939   -0.14743817    0.10894151   1       1  c
    2.46605859   -0.07895391    0.09317181   1       2  c
    3.18770506   -1.28695862    0.06818517   1       3  c
    4.56460864   -1.22109744    0.06841280   1       4  c
    5.26740452   -0.07988578    0.03282012   2       5  n
    4.58842990    1.08298955    0.08343725   1       6  c
    5.32840333    2.27153215    0.02431728   1       7  c
    4.69569740    3.49642849    0.00705139   1       8  c
    3.32385829    3.57858925    0.05502476   1       9  c
    2.57205678    2.42091330    0.11107960   1      10  c
    3.18808648    1.14910705    0.09059933   1      11  c
    0.62716785   -1.18647544    0.09306864   3      12  h
    0.55186180    0.41882938   -0.76694050   3      13  h
    0.51072251    0.28437161    0.99584308   3      14  h
    2.66137411   -2.26528624    0.08768801   3      15  h
    5.14492980   -2.15353362    0.03048550   3      16  h
    6.42251901    2.17816051   -0.03012576   3      17  h
    5.34535548    4.41010693    0.01984093   3      18  h
    2.79758770    4.59294637    0.05888164   3      19  h
    1.43897665    2.51653068    0.14542723   3      20  h

outcell: Unit cell vectors (Ang):
       13.847130    0.000000    0.000000
        0.000000   14.796430    0.000000
        0.000000    0.000000    9.787910

outcell: Cell vector modules (Ang)   :   13.847130   14.796430    9.787910
outcell: Cell angles (23,13,12) (deg):     90.0000     90.0000     90.0000
outcell: Cell volume (Ang**3)        :   2005.4262
<dSpData1D:S at geom step 3
  <sparsity:sparsity for geom step 3
    nrows_g=188 nrows=188 sparsity=.9789 nnzs=34598, refcount: 7>
  <dData1D:(new from dSpData1D) n=34598, refcount: 1>
refcount: 1>
new_DM -- step:     3
Re-using DM from previous geometries...
Number of DMs in history: 1
 DM extrapolation coefficients: 
1   1.00000
New DM after history re-use:
<dSpData2D:SpM extrapolated using coords
  <sparsity:sparsity for geom step 3
    nrows_g=188 nrows=188 sparsity=.9789 nnzs=34598, refcount: 9>
  <dData2D:(temp array for extrapolation) n=34598 m=2, refcount: 1>
refcount: 1>
     spin moment: S , {S} =   -0.00000       0.0       0.0  -0.00000
Note: For starting DM, Qtot, Tr[D*S] =         54.00000000         53.93667288
No. of atoms with KB's overlaping orbs in proc 0. Max # of overlaps:      20     174

InitMesh: MESH = 90 x 90 x 60 = 486000
InitMesh: Mesh cutoff (required, used) =   100.000   102.252 Ry
New grid distribution [1]: sub = 2

        iscf     Eharris(eV)        E_KS(eV)     FreeEng(eV)     dDmax    Ef(eV) dHmax(eV)
   scf:    1    -2033.741604    -2033.614561    -2033.614561  0.008289 -2.800339  0.699876
     spin moment: S , {S} =    0.00000       0.0       0.0   0.00000
   scf:    2    -2033.205487    -2033.501948    -2033.501948  0.018348 -3.286050  1.814405
     spin moment: S , {S} =   -0.00000       0.0       0.0  -0.00000
   scf:    3    -2033.669041    -2033.635630    -2033.635630  0.013168 -2.946350  0.038205
     spin moment: S , {S} =    0.00000       0.0       0.0   0.00000
   scf:    4    -2033.635943    -2033.635820    -2033.635820  0.000296 -2.957245  0.009173
     spin moment: S , {S} =   -0.00000       0.0       0.0  -0.00000
   scf:    5    -2033.635853    -2033.635838    -2033.635838  0.000060 -2.958551  0.004690
     spin moment: S , {S} =    0.00000       0.0       0.0   0.00000
   scf:    6    -2033.635847    -2033.635843    -2033.635843  0.000066 -2.958873  0.001304
     spin moment: S , {S} =    0.00000       0.0       0.0   0.00000
   scf:    7    -2033.635844    -2033.635844    -2033.635844  0.000023 -2.959024  0.000920
     spin moment: S , {S} =    0.00000       0.0       0.0   0.00000

SCF Convergence by DM+H criterion
max |DM_out - DM_in|         :     0.0000231937
max |H_out - H_in|      (eV) :     0.0009197749
SCF cycle converged after 7 iterations

Using DM_out to compute the final energy and forces
No. of atoms with KB's overlaping orbs in proc 0. Max # of overlaps:      20     174

siesta: E_KS(eV) =            -2033.6358
     spin moment: S , {S} =    0.00000       0.0       0.0   0.00000

siesta: Atomic forces (eV/Ang):
     1   -0.011373    0.554829   -0.801519
     2   -0.093738   -1.039990    0.152220
     3   -1.567252    0.810795    0.248268
     4    1.697715    1.077590   -0.371380
     5   -0.111318   -1.252132   -0.262557
     6    0.677947   -0.563889   -0.505330
     7    0.445561    0.529575   -0.049061
     8    2.270862    0.540228    0.166526
     9   -2.108795    1.207035    0.107892
    10   -1.543585    0.292531   -0.074523
    11   -1.404885   -0.139631    0.264391
    12   -0.092649   -0.511557   -0.276885
    13    0.026735   -0.285740    0.189289
    14   -0.097359    0.541198    0.752438
    15    0.010145    0.141865   -0.049040
    16    0.357834   -0.297460    0.039839
    17    0.251410   -0.054572    0.052961
    18   -0.408691   -0.240518   -0.155957
    19    0.511819   -0.956631    0.002876
    20    0.865818   -0.221279   -0.022242
----------------------------------------
   Tot   -0.323798    0.132246   -0.591795
----------------------------------------
   Max    2.270862
   Res    0.734640    sqrt( Sum f_i^2 / 3N )
----------------------------------------
   Max    2.270862    constrained

Stress tensor Voigt[x,y,z,yz,xz,xy] (kbar):       -6.84        0.07       -0.83       -0.70        0.16        0.64
(Free)E + p*V (eV/cell)    -2030.4658
Target enthalpy (eV/cell)    -2033.6358

siesta: Stress tensor (static) (eV/Ang**3):
        -0.004053    0.000364    0.000149
         0.000364    0.000285   -0.000362
         0.000149   -0.000362   -0.000227

siesta: Pressure (static):          2.13318544  kBar

siesta: Stress tensor (total) (eV/Ang**3):
        -0.004268    0.000400    0.000099
         0.000400    0.000042   -0.000439
         0.000099   -0.000439   -0.000516

siesta: Pressure (total):          2.53267191  kBar

mulliken: Atomic and Orbital Populations:

mulliken: Spin UP 

Species: c                   
Atom  Qatom  Qorb
               2s      2s      2py     2pz     2px     2py     2pz     2px     
               3Pdxy   3Pdyz   3Pdz2   3Pdxz   3Pdx2-y2
   1  1.707  -0.026   0.399   0.065   0.080   0.185   0.357   0.339   0.264
              0.012   0.004   0.005   0.014   0.009
   2  1.957   0.223   0.267   0.232   0.356   0.207   0.250   0.087   0.251
              0.026   0.016   0.002   0.016   0.025
   3  1.888   0.158   0.294   0.096   0.392   0.208   0.335   0.080   0.268
              0.019   0.006   0.001   0.012   0.018
   4  1.957   0.194   0.274   0.175   0.381   0.234   0.283   0.073   0.250
              0.035   0.010   0.002   0.017   0.030
   6  2.057   0.250   0.247   0.290   0.369   0.251   0.206   0.093   0.237
              0.037   0.021   0.003   0.017   0.036
   7  1.879   0.158   0.296   0.233   0.373   0.057   0.251   0.083   0.370
              0.016   0.015   0.001   0.004   0.021
   8  1.879   0.153   0.294   0.127   0.373   0.173   0.320   0.087   0.289
              0.025   0.007   0.001   0.013   0.017
   9  1.882   0.159   0.292   0.104   0.375   0.202   0.332   0.087   0.268
              0.022   0.006   0.001   0.014   0.019
  10  1.899   0.169   0.290   0.251   0.391   0.071   0.235   0.078   0.352
              0.016   0.016   0.001   0.004   0.024
  11  1.991   0.218   0.265   0.206   0.364   0.237   0.266   0.102   0.254
              0.023   0.016   0.002   0.014   0.025

Species: n                   
Atom  Qatom  Qorb
               2s      2s      2py     2pz     2px     2py     2pz     2px     
               3Pdxy   3Pdyz   3Pdz2   3Pdxz   3Pdx2-y2
   5  2.391   0.291   0.310   0.153   0.443   0.706   0.318   0.083   0.042
              0.016   0.010   0.004   0.006   0.009

Species: h                   
Atom  Qatom  Qorb
               1s      1s      2Ppy    2Ppz    2Ppx    
  12  0.597   0.374   0.174   0.016   0.018   0.015
  13  0.595   0.370   0.173   0.019   0.016   0.018
  14  0.598   0.368   0.177   0.019   0.016   0.018
  15  0.623   0.415   0.154   0.021   0.018   0.015
  16  0.616   0.412   0.159   0.015   0.015   0.014
  17  0.627   0.417   0.154   0.015   0.017   0.024
  18  0.620   0.417   0.150   0.019   0.017   0.016
  19  0.618   0.420   0.146   0.021   0.017   0.014
  20  0.620   0.416   0.150   0.012   0.017   0.025

mulliken: Qtot =       27.000

mulliken: Spin DOWN 

Species: c                   
Atom  Qatom  Qorb
               2s      2s      2py     2pz     2px     2py     2pz     2px     
               3Pdxy   3Pdyz   3Pdz2   3Pdxz   3Pdx2-y2
   1  1.707  -0.026   0.399   0.065   0.080   0.185   0.357   0.339   0.264
              0.012   0.004   0.005   0.014   0.009
   2  1.957   0.223   0.267   0.232   0.356   0.207   0.250   0.087   0.251
              0.026   0.016   0.002   0.016   0.025
   3  1.888   0.158   0.294   0.096   0.392   0.208   0.335   0.080   0.268
              0.019   0.006   0.001   0.012   0.018
   4  1.957   0.194   0.274   0.175   0.381   0.234   0.283   0.073   0.250
              0.035   0.010   0.002   0.017   0.030
   6  2.057   0.250   0.247   0.290   0.369   0.251   0.206   0.093   0.237
              0.037   0.021   0.003   0.017   0.036
   7  1.879   0.158   0.296   0.233   0.373   0.057   0.251   0.083   0.370
              0.016   0.015   0.001   0.004   0.021
   8  1.879   0.153   0.294   0.127   0.373   0.173   0.320   0.087   0.289
              0.025   0.007   0.001   0.013   0.017
   9  1.882   0.159   0.292   0.104   0.375   0.202   0.332   0.087   0.268
              0.022   0.006   0.001   0.014   0.019
  10  1.899   0.169   0.290   0.251   0.391   0.071   0.235   0.078   0.352
              0.016   0.016   0.001   0.004   0.024
  11  1.991   0.218   0.265   0.206   0.364   0.237   0.266   0.102   0.254
              0.023   0.016   0.002   0.014   0.025

Species: n                   
Atom  Qatom  Qorb
               2s      2s      2py     2pz     2px     2py     2pz     2px     
               3Pdxy   3Pdyz   3Pdz2   3Pdxz   3Pdx2-y2
   5  2.391   0.291   0.310   0.153   0.443   0.706   0.318   0.083   0.042
              0.016   0.010   0.004   0.006   0.009

Species: h                   
Atom  Qatom  Qorb
               1s      1s      2Ppy    2Ppz    2Ppx    
  12  0.597   0.374   0.174   0.016   0.018   0.015
  13  0.595   0.370   0.173   0.019   0.016   0.018
  14  0.598   0.368   0.177   0.019   0.016   0.018
  15  0.623   0.415   0.154   0.021   0.018   0.015
  16  0.616   0.412   0.159   0.015   0.015   0.014
  17  0.627   0.417   0.154   0.015   0.017   0.024
  18  0.620   0.417   0.150   0.019   0.017   0.016
  19  0.618   0.420   0.146   0.021   0.017   0.014
  20  0.620   0.416   0.150   0.012   0.017   0.025

mulliken: Qtot =       27.000

siesta: Temp_ion =     287.644 K

                     ====================================
                        Begin MD step =      4
                     ====================================

outcoor: Atomic coordinates (Ang):                          
    0.98590683   -0.15702389    0.10972403   1       1  c
    2.46390072   -0.07929147    0.09284754   1       2  c
    3.18772137   -1.28863786    0.06400583   1       3  c
    4.56685546   -1.21486385    0.07391150   1       4  c
    5.26380437   -0.07857231    0.02570120   2       5  n
    4.58424797    1.08589295    0.09626860   1       6  c
    5.33059908    2.27895974    0.02462481   1       7  c
    4.69484334    3.49060498    0.00061453   1       8  c
    3.32432196    3.57585331    0.04924532   1       9  c
    2.57448098    2.42479393    0.11350142   1      10  c
    3.18762445    1.15221450    0.09137755   1      11  c
    0.64147880   -1.20943047    0.10695974   3      12  h
    0.54554019    0.42439847   -0.76767580   3      13  h
    0.47454472    0.27288142    0.99226048   3      14  h
    2.65046059   -2.27673496    0.09368444   3      15  h
    5.14461865   -2.16578441    0.02518739   3      16  h
    6.43352734    2.16406888   -0.04037844   3      17  h
    5.36268169    4.40685966    0.03761286   3      18  h
    2.79007460    4.60194404    0.05440311   3      19  h
    1.42649976    2.52088270    0.14591528   3      20  h

outcell: Unit cell vectors (Ang):
       13.847130    0.000000    0.000000
        0.000000   14.796430    0.000000
        0.000000    0.000000    9.787910

outcell: Cell vector modules (Ang)   :   13.847130   14.796430    9.787910
outcell: Cell angles (23,13,12) (deg):     90.0000     90.0000     90.0000
outcell: Cell volume (Ang**3)        :   2005.4262
<dSpData1D:S at geom step 4
  <sparsity:sparsity for geom step 4
    nrows_g=188 nrows=188 sparsity=.9789 nnzs=34598, refcount: 7>
  <dData1D:(new from dSpData1D) n=34598, refcount: 1>
refcount: 1>
new_DM -- step:     4
Re-using DM from previous geometries...
Number of DMs in history: 1
 DM extrapolation coefficients: 
1   1.00000
New DM after history re-use:
<dSpData2D:SpM extrapolated using coords
  <sparsity:sparsity for geom step 4
    nrows_g=188 nrows=188 sparsity=.9789 nnzs=34598, refcount: 9>
  <dData2D:(temp array for extrapolation) n=34598 m=2, refcount: 1>
refcount: 1>
     spin moment: S , {S} =   -0.00000       0.0       0.0  -0.00000
Note: For starting DM, Qtot, Tr[D*S] =         54.00000000         53.93616179
No. of atoms with KB's overlaping orbs in proc 0. Max # of overlaps:      20     174

InitMesh: MESH = 90 x 90 x 60 = 486000
InitMesh: Mesh cutoff (required, used) =   100.000   102.252 Ry
New grid distribution [1]: sub = 2

        iscf     Eharris(eV)        E_KS(eV)     FreeEng(eV)     dDmax    Ef(eV) dHmax(eV)
   scf:    1    -2033.647516    -2033.526161    -2033.526161  0.008013 -2.905151  0.655232
     spin moment: S , {S} =    0.00000       0.0       0.0   0.00000
   scf:    2    -2033.187527    -2033.433550    -2033.433550  0.017766 -3.334243  1.644204
     spin moment: S , {S} =   -0.00000       0.0       0.0  -0.00000
   scf:    3    -2033.572994    -2033.544324    -2033.544324  0.012616 -3.038816  0.034176
     spin moment: S , {S} =   -0.00000       0.0       0.0  -0.00000
   scf:    4    -2033.544508    -2033.544432    -2033.544432  0.000265 -3.049428  0.009323
     spin moment: S , {S} =    0.00000       0.0       0.0   0.00000
   scf:    5    -2033.544454    -2033.544444    -2033.544444  0.000067 -3.050813  0.004798
     spin moment: S , {S} =    0.00000       0.0       0.0   0.00000
   scf:    6    -2033.544458    -2033.544454    -2033.544454  0.000069 -3.051519  0.001374
     spin moment: S , {S} =   -0.00000       0.0       0.0  -0.00000
   scf:    7    -2033.544455    -2033.544454    -2033.544454  0.000021 -3.051724  0.000480
     spin moment: S , {S} =    0.00000       0.0       0.0   0.00000

SCF Convergence by DM+H criterion
max |DM_out - DM_in|         :     0.0000205748
max |H_out - H_in|      (eV) :     0.0004802579
SCF cycle converged after 7 iterations

Using DM_out to compute the final energy and forces
No. of atoms with KB's overlaping orbs in proc 0. Max # of overlaps:      20     174

siesta: E_KS(eV) =            -2033.5445
     spin moment: S , {S} =    0.00000       0.0       0.0   0.00000

siesta: Atomic forces (eV/Ang):
     1   -0.775609    0.664530   -0.689396
     2    0.176668   -0.997996    0.211773
     3   -1.725175    0.626886    0.372895
     4    1.646700    0.343632   -0.537683
     5   -0.009773   -0.913371   -0.018576
     6    0.998425   -0.438754   -0.745651
     7    0.728373   -0.322190   -0.042696
     8    2.565989    1.304268    0.280574
     9   -2.249303    1.750839    0.142142
    10   -2.109295    0.124900   -0.107496
    11   -1.526843   -0.295566    0.363134
    12   -0.016443   -0.180160   -0.372314
    13    0.177992   -0.575277    0.395639
    14    0.235742    0.377814    0.444703
    15    0.252098    0.514765   -0.082003
    16    0.168507    0.132356    0.073123
    17   -0.118371    0.057374    0.100376
    18   -0.692570   -0.476574   -0.251129
    19    0.706418   -1.269567   -0.005381
    20    1.251268   -0.246260   -0.025397
----------------------------------------
   Tot   -0.315204    0.181648   -0.493361
----------------------------------------
   Max    2.565989
   Res    0.836439    sqrt( Sum f_i^2 / 3N )
----------------------------------------
   Max    2.565989    constrained

Stress tensor Voigt[x,y,z,yz,xz,xy] (kbar):       -5.86        1.12       -0.43       -0.72        0.02        0.56
(Free)E + p*V (eV/cell)    -2031.3878
Target enthalpy (eV/cell)    -2033.5445

siesta: Stress tensor (static) (eV/Ang**3):
        -0.003464    0.000314    0.000047
         0.000314    0.000937   -0.000381
         0.000047   -0.000381    0.000000

siesta: Pressure (static):          1.34949955  kBar

siesta: Stress tensor (total) (eV/Ang**3):
        -0.003658    0.000347    0.000011
         0.000347    0.000699   -0.000451
         0.000011   -0.000451   -0.000267

siesta: Pressure (total):          1.72303303  kBar

mulliken: Atomic and Orbital Populations:

mulliken: Spin UP 

Species: c                   
Atom  Qatom  Qorb
               2s      2s      2py     2pz     2px     2py     2pz     2px     
               3Pdxy   3Pdyz   3Pdz2   3Pdxz   3Pdx2-y2
   1  1.711  -0.014   0.392   0.067   0.093   0.180   0.352   0.328   0.268
              0.012   0.004   0.005   0.014   0.009
   2  1.958   0.223   0.267   0.232   0.356   0.207   0.250   0.087   0.251
              0.026   0.016   0.002   0.016   0.025
   3  1.889   0.163   0.292   0.102   0.393   0.209   0.329   0.079   0.266
              0.019   0.006   0.001   0.012   0.018
   4  1.961   0.201   0.270   0.177   0.381   0.240   0.280   0.073   0.245
              0.035   0.011   0.002   0.017   0.030
   6  2.056   0.251   0.247   0.288   0.370   0.251   0.206   0.092   0.237
              0.037   0.020   0.003   0.017   0.035
   7  1.880   0.160   0.295   0.233   0.372   0.061   0.251   0.084   0.365
              0.016   0.015   0.001   0.004   0.021
   8  1.882   0.156   0.292   0.133   0.371   0.171   0.316   0.089   0.290
              0.025   0.007   0.001   0.014   0.017
   9  1.885   0.163   0.291   0.108   0.375   0.203   0.328   0.088   0.267
              0.022   0.006   0.001   0.014   0.019
  10  1.900   0.172   0.289   0.252   0.390   0.075   0.235   0.078   0.346
              0.016   0.016   0.001   0.004   0.024
  11  1.991   0.218   0.265   0.206   0.363   0.237   0.265   0.103   0.254
              0.023   0.016   0.002   0.014   0.025

Species: n                   
Atom  Qatom  Qorb
               2s      2s      2py     2pz     2px     2py     2pz     2px     
               3Pdxy   3Pdyz   3Pdz2   3Pdxz   3Pdx2-y2
   5  2.389   0.289   0.311   0.151   0.441   0.703   0.320   0.085   0.044
              0.016   0.010   0.004   0.006   0.009

Species: h                   
Atom  Qatom  Qorb
               1s      1s      2Ppy    2Ppz    2Ppx    
  12  0.597   0.374   0.173   0.017   0.018   0.015
  13  0.594   0.372   0.170   0.019   0.016   0.017
  14  0.596   0.370   0.174   0.018   0.016   0.018
  15  0.621   0.415   0.152   0.021   0.018   0.015
  16  0.614   0.414   0.156   0.015   0.015   0.014
  17  0.625   0.418   0.152   0.015   0.017   0.024
  18  0.618   0.418   0.148   0.019   0.017   0.016
  19  0.616   0.421   0.143   0.021   0.016   0.014
  20  0.618   0.417   0.148   0.012   0.017   0.025

mulliken: Qtot =       27.000

mulliken: Spin DOWN 

Species: c                   
Atom  Qatom  Qorb
               2s      2s      2py     2pz     2px     2py     2pz     2px     
               3Pdxy   3Pdyz   3Pdz2   3Pdxz   3Pdx2-y2
   1  1.711  -0.014   0.392   0.067   0.093   0.180   0.352   0.328   0.268
              0.012   0.004   0.005   0.014   0.009
   2  1.958   0.223   0.267   0.232   0.356   0.207   0.250   0.087   0.251
              0.026   0.016   0.002   0.016   0.025
   3  1.889   0.163   0.292   0.102   0.393   0.209   0.329   0.079   0.266
              0.019   0.006   0.001   0.012   0.018
   4  1.961   0.201   0.270   0.177   0.381   0.240   0.280   0.073   0.245
              0.035   0.011   0.002   0.017   0.030
   6  2.056   0.251   0.247   0.288   0.370   0.251   0.206   0.092   0.237
              0.037   0.020   0.003   0.017   0.035
   7  1.880   0.160   0.295   0.233   0.372   0.061   0.251   0.084   0.365
              0.016   0.015   0.001   0.004   0.021
   8  1.882   0.156   0.292   0.133   0.371   0.171   0.316   0.089   0.290
              0.025   0.007   0.001   0.014   0.017
   9  1.885   0.163   0.291   0.108   0.375   0.203   0.328   0.088   0.267
              0.022   0.006   0.001   0.014   0.019
  10  1.900   0.172   0.289   0.252   0.390   0.075   0.235   0.078   0.346
              0.016   0.016   0.001   0.004   0.024
  11  1.991   0.218   0.265   0.206   0.363   0.237   0.265   0.103   0.254
              0.023   0.016   0.002   0.014   0.025

Species: n                   
Atom  Qatom  Qorb
               2s      2s      2py     2pz     2px     2py     2pz     2px     
               3Pdxy   3Pdyz   3Pdz2   3Pdxz   3Pdx2-y2
   5  2.389   0.289   0.311   0.151   0.441   0.703   0.320   0.085   0.044
              0.016   0.010   0.004   0.006   0.009

Species: h                   
Atom  Qatom  Qorb
               1s      1s      2Ppy    2Ppz    2Ppx    
  12  0.597   0.374   0.173   0.017   0.018   0.015
  13  0.594   0.372   0.170   0.019   0.016   0.017
  14  0.596   0.370   0.174   0.018   0.016   0.018
  15  0.621   0.415   0.152   0.021   0.018   0.015
  16  0.614   0.414   0.156   0.015   0.015   0.014
  17  0.625   0.418   0.152   0.015   0.017   0.024
  18  0.618   0.418   0.148   0.019   0.017   0.016
  19  0.616   0.421   0.143   0.021   0.016   0.014
  20  0.618   0.417   0.148   0.012   0.017   0.025

mulliken: Qtot =       27.000

siesta: Temp_ion =     251.791 K

                     ====================================
                        Begin MD step =      5
                     ====================================

outcoor: Atomic coordinates (Ang):                          
    0.99177629   -0.16608056    0.10995674   1       1  c
    2.46188354   -0.08042509    0.09269214   1       2  c
    3.18636162   -1.28981725    0.06012349   1       3  c
    4.57041596   -1.20835553    0.07898190   1       4  c
    5.26019716   -0.07788323    0.01856882   2       5  n
    4.58086199    1.08844668    0.10850653   1       6  c
    5.33337604    2.28613111    0.02489832   1       7  c
    4.69603590    3.48582119   -0.00559921   1       8  c
    3.32299158    3.57451361    0.04357866   1       9  c
    2.57522300    2.42877459    0.11583775   1      10  c
    3.18594451    1.15508652    0.09244550   1      11  c
    0.65563528   -1.23409664    0.11732101   3      12  h
    0.54090612    0.42451181   -0.76465866   3      13  h
    0.44059909    0.26497349    0.99289537   3      14  h
    2.64193702   -2.28330248    0.09890373   3      15  h
    5.14590570   -2.17678113    0.02058228   3      16  h
    6.44341411    2.15051996   -0.04968016   3      17  h
    5.37344090    4.39909190    0.05300474   3      18  h
    2.78926087    4.59890120    0.04987308   3      19  h
    1.42588946    2.52289947    0.14616250   3      20  h

outcell: Unit cell vectors (Ang):
       13.847130    0.000000    0.000000
        0.000000   14.796430    0.000000
        0.000000    0.000000    9.787910

outcell: Cell vector modules (Ang)   :   13.847130   14.796430    9.787910
outcell: Cell angles (23,13,12) (deg):     90.0000     90.0000     90.0000
outcell: Cell volume (Ang**3)        :   2005.4262
<dSpData1D:S at geom step 5
  <sparsity:sparsity for geom step 5
    nrows_g=188 nrows=188 sparsity=.9789 nnzs=34598, refcount: 7>
  <dData1D:(new from dSpData1D) n=34598, refcount: 1>
refcount: 1>
new_DM -- step:     5
Re-using DM from previous geometries...
Number of DMs in history: 1
 DM extrapolation coefficients: 
1   1.00000
New DM after history re-use:
<dSpData2D:SpM extrapolated using coords
  <sparsity:sparsity for geom step 5
    nrows_g=188 nrows=188 sparsity=.9789 nnzs=34598, refcount: 9>
  <dData2D:(temp array for extrapolation) n=34598 m=2, refcount: 1>
refcount: 1>
     spin moment: S , {S} =   -0.00000       0.0       0.0  -0.00000
No. of atoms with KB's overlaping orbs in proc 0. Max # of overlaps:      20     174

InitMesh: MESH = 90 x 90 x 60 = 486000
InitMesh: Mesh cutoff (required, used) =   100.000   102.252 Ry
New grid distribution [1]: sub = 2

        iscf     Eharris(eV)        E_KS(eV)     FreeEng(eV)     dDmax    Ef(eV) dHmax(eV)
   scf:    1    -2033.506590    -2033.450031    -2033.450031  0.006407 -3.082053  0.465845
     spin moment: S , {S} =    0.00000       0.0       0.0   0.00000
   scf:    2    -2033.197214    -2033.381205    -2033.381205  0.012828 -3.306091  0.994188
     spin moment: S , {S} =   -0.00000       0.0       0.0  -0.00000
   scf:    3    -2033.486332    -2033.463883    -2033.463883  0.009405 -3.155683  0.043268
     spin moment: S , {S} =    0.00000       0.0       0.0   0.00000
   scf:    4    -2033.464044    -2033.463977    -2033.463977  0.000280 -3.164128  0.012157
     spin moment: S , {S} =   -0.00000       0.0       0.0  -0.00000
   scf:    5    -2033.463996    -2033.463987    -2033.463987  0.000074 -3.165144  0.005854
     spin moment: S , {S} =    0.00000       0.0       0.0   0.00000
   scf:    6    -2033.463994    -2033.463991    -2033.463991  0.000071 -3.165599  0.000988
     spin moment: S , {S} =   -0.00000       0.0       0.0  -0.00000

SCF Convergence by DM+H criterion
max |DM_out - DM_in|         :     0.0000712936
max |H_out - H_in|      (eV) :     0.0009878678
SCF cycle converged after 6 iterations

Using DM_out to compute the final energy and forces
No. of atoms with KB's overlaping orbs in proc 0. Max # of overlaps:      20     174

siesta: E_KS(eV) =            -2033.4640
     spin moment: S , {S} =   -0.00000       0.0       0.0  -0.00000

siesta: Atomic forces (eV/Ang):
     1   -1.518831    0.649806   -0.366139
     2    0.397357   -0.905092    0.259159
     3   -1.642523    0.542133    0.491880
     4    1.419210   -0.389497   -0.693019
     5    0.135122   -0.541077    0.252712
     6    1.210934   -0.315037   -0.980473
     7    0.961336   -1.156351   -0.029213
     8    2.483200    1.851119    0.387423
     9   -2.028077    1.882747    0.169212
    10   -2.291297   -0.067678   -0.146975
    11   -1.530658   -0.424412    0.453405
    12    0.061201    0.205602   -0.437366
    13    0.256533   -0.738154    0.450202
    14    0.615677    0.162342    0.057750
    15    0.399775    0.716117   -0.111572
    16    0.005017    0.511112    0.107205
    17   -0.420457    0.147692    0.146633
    18   -0.805816   -0.498788   -0.342560
    19    0.708903   -1.222117   -0.011672
    20    1.273788   -0.236348   -0.017859
----------------------------------------
   Tot   -0.309606    0.174118   -0.361267
----------------------------------------
   Max    2.483200
   Res    0.891753    sqrt( Sum f_i^2 / 3N )
----------------------------------------
   Max    2.483200    constrained

Stress tensor Voigt[x,y,z,yz,xz,xy] (kbar):       -5.12        1.59       -0.07       -0.61       -0.20        0.53
(Free)E + p*V (eV/cell)    -2031.9660
Target enthalpy (eV/cell)    -2033.4640

siesta: Stress tensor (static) (eV/Ang**3):
        -0.003037    0.000304   -0.000103
         0.000304    0.001207   -0.000320
        -0.000103   -0.000320    0.000201

siesta: Pressure (static):          0.86981819  kBar

siesta: Stress tensor (total) (eV/Ang**3):
        -0.003193    0.000333   -0.000125
         0.000333    0.000994   -0.000382
        -0.000125   -0.000382   -0.000041

siesta: Pressure (total):          1.19679310  kBar

mulliken: Atomic and Orbital Populations:

mulliken: Spin UP 

Species: c                   
Atom  Qatom  Qorb
               2s      2s      2py     2pz     2px     2py     2pz     2px     
               3Pdxy   3Pdyz   3Pdz2   3Pdxz   3Pdx2-y2
   1  1.715  -0.002   0.387   0.070   0.103   0.176   0.347   0.319   0.271
              0.012   0.004   0.005   0.015   0.010
   2  1.959   0.222   0.268   0.231   0.356   0.207   0.250   0.087   0.252
              0.026   0.016   0.002   0.016   0.025
   3  1.891   0.166   0.291   0.105   0.394   0.210   0.325   0.078   0.265
              0.019   0.006   0.001   0.012   0.018
   4  1.966   0.207   0.267   0.179   0.381   0.246   0.278   0.073   0.240
              0.034   0.011   0.002   0.017   0.031
   6  2.055   0.252   0.247   0.287   0.372   0.253   0.205   0.091   0.236
              0.037   0.020   0.003   0.017   0.035
   7  1.881   0.162   0.295   0.233   0.372   0.065   0.252   0.084   0.360
              0.016   0.015   0.001   0.004   0.021
   8  1.883   0.157   0.292   0.137   0.370   0.169   0.313   0.090   0.291
              0.025   0.008   0.001   0.014   0.017
   9  1.885   0.162   0.291   0.107   0.374   0.203   0.329   0.088   0.267
[...]
   11.3389   11.5416   11.6420   11.8221   12.1651   12.4881   12.5646   12.8117   13.2190   13.7104
   13.7441   14.1984   14.6814   15.1952   15.6855   16.4724   16.7332   16.9073   16.9745   17.3193
   17.6498   17.9418   18.1879   18.2476   18.5508   18.9495   18.9947   19.2382   19.6535   20.0011
   20.1470   20.3864   20.5936   20.6532   20.8382   21.2183   21.8413   22.1385   22.4042   22.6639
   23.1094   23.2778   23.7995   24.2657   24.7874   25.0749   25.4731   25.7608   26.2382   27.0472
   27.7525   28.3213   29.9011   30.1735   31.5253   32.1768   32.4085   33.2536   34.0716   34.8001
   35.4626   35.8833   36.6685   37.2589   38.1511   38.6646   38.8065   40.0875   40.5752   40.9111
   41.9148   42.2891   43.0354   43.3672   43.8477   44.6238   44.9689   45.8250   46.8433   47.7381
   48.0045   49.0397   49.2785   49.6031   49.9686   50.2085   51.0126   51.9847   52.8221   54.0050
   54.8271   55.3715   55.4916   55.7315   57.2048   57.7389   58.2281   58.5077   59.8555   60.6735
   61.2669   62.9470   63.3527   64.1747   64.8518   66.7580   67.9864   68.5288   69.7011   71.1530
   73.5441   74.2691   76.5557   77.1258   78.2534   79.6036   80.5832   81.6534   84.1099   86.2389
   87.9694   89.8246   95.8420   99.4738  105.1088  106.6580  109.5354  114.4446
  73  2  -23.1510  -20.7111  -20.0544  -18.2213  -18.0786  -17.3630  -15.2948  -15.0100  -14.0425  -12.5179
         -12.2548  -11.8052  -10.9465  -10.7093  -10.3396   -9.9063   -9.8062   -9.6593   -9.0636   -8.9922
   -8.4272   -8.1102   -7.6620   -7.0135   -6.0884   -5.3607   -5.3054   -2.1998   -1.0588   -0.4560
    1.3163    1.6907    2.3190    2.5712    3.1969    3.4786    3.7378    4.0226    4.1116    4.2850
    4.8177    4.9609    5.9537    6.0919    6.8826    6.9187    7.3808    7.6224    7.8327    8.2396
    8.6264    8.8710    9.1117    9.5002    9.8384   10.0384   10.4278   10.6054   10.8592   11.1420
   11.3389   11.5416   11.6420   11.8221   12.1651   12.4881   12.5646   12.8117   13.2190   13.7104
   13.7441   14.1984   14.6814   15.1952   15.6855   16.4724   16.7332   16.9073   16.9745   17.3193
   17.6498   17.9418   18.1879   18.2476   18.5508   18.9495   18.9947   19.2382   19.6535   20.0011
   20.1470   20.3864   20.5936   20.6532   20.8382   21.2183   21.8413   22.1385   22.4042   22.6639
   23.1094   23.2778   23.7995   24.2657   24.7874   25.0749   25.4731   25.7608   26.2382   27.0472
   27.7525   28.3213   29.9011   30.1735   31.5253   32.1768   32.4085   33.2536   34.0716   34.8001
   35.4626   35.8833   36.6685   37.2589   38.1511   38.6646   38.8065   40.0875   40.5752   40.9111
   41.9148   42.2891   43.0354   43.3672   43.8477   44.6238   44.9689   45.8250   46.8433   47.7381
   48.0045   49.0397   49.2785   49.6031   49.9686   50.2085   51.0126   51.9847   52.8221   54.0050
   54.8271   55.3715   55.4916   55.7315   57.2048   57.7389   58.2281   58.5077   59.8555   60.6735
   61.2669   62.9470   63.3527   64.1747   64.8518   66.7580   67.9864   68.5288   69.7011   71.1530
   73.5441   74.2691   76.5557   77.1258   78.2534   79.6036   80.5832   81.6534   84.1099   86.2389
   87.9694   89.8246   95.8420   99.4738  105.1088  106.6580  109.5354  114.4446
  74  2  -23.1510  -20.7111  -20.0544  -18.2213  -18.0786  -17.3630  -15.2948  -15.0100  -14.0425  -12.5179
         -12.2548  -11.8052  -10.9465  -10.7093  -10.3396   -9.9063   -9.8062   -9.6593   -9.0636   -8.9922
   -8.4272   -8.1102   -7.6620   -7.0135   -6.0884   -5.3607   -5.3054   -2.1998   -1.0588   -0.4560
    1.3163    1.6907    2.3190    2.5712    3.1969    3.4786    3.7378    4.0226    4.1116    4.2850
    4.8177    4.9609    5.9537    6.0919    6.8826    6.9187    7.3808    7.6224    7.8327    8.2396
    8.6264    8.8710    9.1117    9.5002    9.8384   10.0384   10.4278   10.6054   10.8592   11.1420
   11.3389   11.5416   11.6420   11.8221   12.1651   12.4881   12.5646   12.8117   13.2190   13.7104
   13.7441   14.1984   14.6814   15.1952   15.6855   16.4724   16.7332   16.9073   16.9745   17.3193
   17.6498   17.9418   18.1879   18.2476   18.5508   18.9495   18.9947   19.2382   19.6535   20.0011
   20.1470   20.3864   20.5936   20.6532   20.8382   21.2183   21.8413   22.1385   22.4042   22.6639
   23.1094   23.2778   23.7995   24.2657   24.7874   25.0749   25.4731   25.7608   26.2382   27.0472
   27.7525   28.3213   29.9011   30.1735   31.5253   32.1768   32.4085   33.2536   34.0716   34.8001
   35.4626   35.8833   36.6685   37.2589   38.1511   38.6646   38.8065   40.0875   40.5752   40.9111
   41.9148   42.2891   43.0354   43.3672   43.8477   44.6238   44.9689   45.8250   46.8433   47.7381
   48.0045   49.0397   49.2785   49.6031   49.9686   50.2085   51.0126   51.9847   52.8221   54.0050
   54.8271   55.3715   55.4916   55.7315   57.2048   57.7389   58.2281   58.5077   59.8555   60.6735
   61.2669   62.9470   63.3527   64.1747   64.8518   66.7580   67.9864   68.5288   69.7011   71.1530
   73.5441   74.2691   76.5557   77.1258   78.2534   79.6036   80.5832   81.6534   84.1099   86.2389
   87.9694   89.8246   95.8420   99.4738  105.1088  106.6580  109.5354  114.4446
  75  2  -23.1510  -20.7111  -20.0544  -18.2213  -18.0786  -17.3630  -15.2948  -15.0100  -14.0425  -12.5179
         -12.2548  -11.8052  -10.9465  -10.7093  -10.3396   -9.9063   -9.8062   -9.6593   -9.0636   -8.9922
   -8.4272   -8.1102   -7.6620   -7.0135   -6.0884   -5.3607   -5.3054   -2.1998   -1.0588   -0.4560
    1.3163    1.6907    2.3190    2.5712    3.1969    3.4786    3.7378    4.0226    4.1116    4.2850
    4.8177    4.9609    5.9537    6.0919    6.8826    6.9187    7.3808    7.6224    7.8327    8.2396
    8.6264    8.8710    9.1117    9.5002    9.8384   10.0384   10.4278   10.6054   10.8592   11.1420
   11.3389   11.5416   11.6420   11.8221   12.1651   12.4881   12.5646   12.8117   13.2190   13.7104
   13.7441   14.1984   14.6814   15.1952   15.6855   16.4724   16.7332   16.9073   16.9745   17.3193
   17.6498   17.9418   18.1879   18.2476   18.5508   18.9495   18.9947   19.2382   19.6535   20.0011
   20.1470   20.3864   20.5936   20.6532   20.8382   21.2183   21.8413   22.1385   22.4042   22.6639
   23.1094   23.2778   23.7995   24.2657   24.7874   25.0749   25.4731   25.7608   26.2382   27.0472
   27.7525   28.3213   29.9011   30.1735   31.5253   32.1768   32.4085   33.2536   34.0716   34.8001
   35.4626   35.8833   36.6685   37.2589   38.1511   38.6646   38.8065   40.0875   40.5752   40.9111
   41.9148   42.2891   43.0354   43.3672   43.8477   44.6238   44.9689   45.8250   46.8433   47.7381
   48.0045   49.0397   49.2785   49.6031   49.9686   50.2085   51.0126   51.9847   52.8221   54.0050
   54.8271   55.3715   55.4916   55.7315   57.2048   57.7389   58.2281   58.5077   59.8555   60.6735
   61.2669   62.9470   63.3527   64.1747   64.8518   66.7580   67.9864   68.5288   69.7011   71.1530
   73.5441   74.2691   76.5557   77.1258   78.2534   79.6036   80.5832   81.6534   84.1099   86.2389
   87.9694   89.8246   95.8420   99.4738  105.1088  106.6580  109.5354  114.4446
  76  2  -23.1510  -20.7111  -20.0544  -18.2213  -18.0786  -17.3630  -15.2948  -15.0100  -14.0425  -12.5179
         -12.2548  -11.8052  -10.9465  -10.7093  -10.3396   -9.9063   -9.8062   -9.6593   -9.0636   -8.9922
   -8.4272   -8.1102   -7.6620   -7.0135   -6.0884   -5.3607   -5.3054   -2.1998   -1.0588   -0.4560
    1.3163    1.6907    2.3190    2.5712    3.1969    3.4786    3.7378    4.0226    4.1116    4.2850
    4.8177    4.9609    5.9537    6.0919    6.8826    6.9187    7.3808    7.6224    7.8327    8.2396
    8.6264    8.8710    9.1117    9.5002    9.8384   10.0384   10.4278   10.6054   10.8592   11.1420
   11.3389   11.5416   11.6420   11.8221   12.1651   12.4881   12.5646   12.8117   13.2190   13.7104
   13.7441   14.1984   14.6814   15.1952   15.6855   16.4724   16.7332   16.9073   16.9745   17.3193
   17.6498   17.9418   18.1879   18.2476   18.5508   18.9495   18.9947   19.2382   19.6535   20.0011
   20.1470   20.3864   20.5936   20.6532   20.8382   21.2183   21.8413   22.1385   22.4042   22.6639
   23.1094   23.2778   23.7995   24.2657   24.7874   25.0749   25.4731   25.7608   26.2382   27.0472
   27.7525   28.3213   29.9011   30.1735   31.5253   32.1768   32.4085   33.2536   34.0716   34.8001
   35.4626   35.8833   36.6685   37.2589   38.1511   38.6646   38.8065   40.0875   40.5752   40.9111
   41.9148   42.2891   43.0354   43.3672   43.8477   44.6238   44.9689   45.8250   46.8433   47.7381
   48.0045   49.0397   49.2785   49.6031   49.9686   50.2085   51.0126   51.9847   52.8221   54.0050
   54.8271   55.3715   55.4916   55.7315   57.2048   57.7389   58.2281   58.5077   59.8555   60.6735
   61.2669   62.9470   63.3527   64.1747   64.8518   66.7580   67.9864   68.5288   69.7011   71.1530
   73.5441   74.2691   76.5557   77.1258   78.2534   79.6036   80.5832   81.6534   84.1099   86.2389
   87.9694   89.8246   95.8420   99.4738  105.1088  106.6580  109.5354  114.4446

siesta: Eigenvalues (eV):
  ik is       eps
   1  1  -23.1510  -20.7111  -20.0544  -18.2213  -18.0786  -17.3630  -15.2948  -15.0100  -14.0425  -12.5179
         -12.2548  -11.8052  -10.9465  -10.7093  -10.3396   -9.9063   -9.8062   -9.6593   -9.0636   -8.9922
   -8.4272   -8.1102   -7.6620   -7.0135   -6.0884   -5.3607   -5.3054   -2.1998   -1.0588   -0.4560
    1.3163    1.6907    2.3190    2.5712    3.1969    3.4786    3.7378    4.0226    4.1116    4.2850
    4.8177    4.9609    5.9537    6.0919    6.8826    6.9187    7.3808    7.6224    7.8327    8.2396
    8.6264    8.8710    9.1117    9.5002    9.8384   10.0384   10.4278   10.6054   10.8592   11.1420
   11.3389   11.5416   11.6420   11.8221   12.1651   12.4881   12.5646   12.8117   13.2190   13.7104
   13.7441   14.1984   14.6814   15.1952   15.6855   16.4724   16.7332   16.9073   16.9745   17.3193
   17.6498   17.9418   18.1879   18.2476   18.5508   18.9495   18.9947   19.2382   19.6535   20.0011
   20.1470   20.3864   20.5936   20.6532   20.8382   21.2183   21.8413   22.1385   22.4042   22.6639
   23.1094   23.2778   23.7995   24.2657   24.7874   25.0749   25.4731   25.7608   26.2382   27.0472
   27.7525   28.3213   29.9011   30.1735   31.5253   32.1768   32.4085   33.2536   34.0716   34.8001
   35.4626   35.8833   36.6685   37.2589   38.1511   38.6646   38.8065   40.0875   40.5752   40.9111
   41.9148   42.2891   43.0354   43.3672   43.8477   44.6238   44.9689   45.8250   46.8433   47.7381
   48.0045   49.0397   49.2785   49.6031   49.9686   50.2085   51.0126   51.9847   52.8221   54.0050
   54.8271   55.3715   55.4916   55.7315   57.2048   57.7389   58.2281   58.5077   59.8555   60.6735
   61.2669   62.9470   63.3527   64.1747   64.8518   66.7580   67.9864   68.5288   69.7011   71.1530
   73.5441   74.2691   76.5557   77.1258   78.2534   79.6036   80.5832   81.6534   84.1099   86.2389
   87.9694   89.8246   95.8420   99.4738  105.1088  106.6580  109.5354  114.4446
   1  2  -23.1510  -20.7111  -20.0544  -18.2213  -18.0786  -17.3630  -15.2948  -15.0100  -14.0425  -12.5179
         -12.2548  -11.8052  -10.9465  -10.7093  -10.3396   -9.9063   -9.8062   -9.6593   -9.0636   -8.9922
   -8.4272   -8.1102   -7.6620   -7.0135   -6.0884   -5.3607   -5.3054   -2.1998   -1.0588   -0.4560
    1.3163    1.6907    2.3190    2.5712    3.1969    3.4786    3.7378    4.0226    4.1116    4.2850
    4.8177    4.9609    5.9537    6.0919    6.8826    6.9187    7.3808    7.6224    7.8327    8.2396
    8.6264    8.8710    9.1117    9.5002    9.8384   10.0384   10.4278   10.6054   10.8592   11.1420
   11.3389   11.5416   11.6420   11.8221   12.1651   12.4881   12.5646   12.8117   13.2190   13.7104
   13.7441   14.1984   14.6814   15.1952   15.6855   16.4724   16.7332   16.9073   16.9745   17.3193
   17.6498   17.9418   18.1879   18.2476   18.5508   18.9495   18.9947   19.2382   19.6535   20.0011
   20.1470   20.3864   20.5936   20.6532   20.8382   21.2183   21.8413   22.1385   22.4042   22.6639
   23.1094   23.2778   23.7995   24.2657   24.7874   25.0749   25.4731   25.7608   26.2382   27.0472
   27.7525   28.3213   29.9011   30.1735   31.5253   32.1768   32.4085   33.2536   34.0716   34.8001
   35.4626   35.8833   36.6685   37.2589   38.1511   38.6646   38.8065   40.0875   40.5752   40.9111
   41.9148   42.2891   43.0354   43.3672   43.8477   44.6238   44.9689   45.8250   46.8433   47.7381
   48.0045   49.0397   49.2785   49.6031   49.9686   50.2085   51.0126   51.9847   52.8221   54.0050
   54.8271   55.3715   55.4916   55.7315   57.2048   57.7389   58.2281   58.5077   59.8555   60.6735
   61.2669   62.9470   63.3527   64.1747   64.8518   66.7580   67.9864   68.5288   69.7011   71.1530
   73.5441   74.2691   76.5557   77.1258   78.2534   79.6036   80.5832   81.6534   84.1099   86.2389
   87.9694   89.8246   95.8420   99.4738  105.1088  106.6580  109.5354  114.4446
siesta: Fermi energy =      -3.899329 eV

siesta: PDOS info
siesta: E1 -- E2, sigma [eV], nhist:  -10.000 --   10.000    0.200 500

siesta: Program's energy decomposition (eV):
siesta: Ebs     =      -651.793403
siesta: Eions   =      3141.017114
siesta: Ena     =       654.630692
siesta: Ekin    =      1395.612808
siesta: Enl     =      -192.016595
siesta: Eso     =         0.000000
siesta: Edftu   =         0.000000
siesta: DEna    =       -43.682723
siesta: DUscf   =         5.248136
siesta: DUext   =         0.000000
siesta: Exc     =      -711.818491
siesta: eta*DQ  =         0.000000
siesta: Emadel  =         0.000000
siesta: Emeta   =         0.000000
siesta: Emolmec =         0.000000
siesta: Ekinion =         0.770493
siesta: Eharris =     -2032.272793
siesta: Etot    =     -2032.272793
siesta: FreeEng =     -2032.272793

siesta: Final energy (eV):
siesta:  Band Struct. =    -651.793403
siesta:       Kinetic =    1395.612808
siesta:       Hartree =    4624.673780
siesta:       Edftu   =       0.000000
siesta:       Eso     =       0.000000
siesta:    Ext. field =       0.000000
siesta:   Exch.-corr. =    -711.818491
siesta:  Ion-electron =  -10473.449607
siesta:       Ion-ion =    3131.938224
siesta:       Ekinion =       0.770493
siesta:         Total =   -2032.272793
siesta:         Fermi =      -3.899329

siesta: Atomic forces (eV/Ang):
siesta:      1    1.990762    0.883683    0.843394
siesta:      2    1.060982    0.433610    0.348703
siesta:      3   -2.839033    0.011588    0.074392
siesta:      4    1.401593   -0.022910    0.233371
siesta:      5   -0.223765   -0.463037    0.306979
siesta:      6    0.498562   -1.466630   -0.078336
siesta:      7    0.220802    1.192201    1.028659
siesta:      8    1.124791    1.681233    0.725574
siesta:      9   -2.453728   -1.314978    0.446966
siesta:     10   -0.469487    2.772485   -1.349196
siesta:     11   -0.625896   -1.967537    0.328513
siesta:     12   -0.495469   -0.931656   -0.048345
siesta:     13   -1.253326   -0.093846   -1.223226
siesta:     14    0.019499    0.184369    0.046641
siesta:     15    0.144149    0.974009    0.037811
siesta:     16    1.083491   -0.161257   -0.163620
siesta:     17   -0.868728   -0.064999   -0.666453
siesta:     18   -0.715956   -1.235236   -0.283076
siesta:     19    1.162594   -0.448006   -0.069055
siesta:     20    0.914437    0.229010    0.156113
siesta: ----------------------------------------
siesta:    Tot   -0.323724    0.192097    0.695808

siesta: Stress tensor (static) (eV/Ang**3):
siesta:    -0.000083    0.001880   -0.000671
siesta:     0.001879    0.000945   -0.000380
siesta:    -0.000671   -0.000380   -0.000196

siesta: Cell volume =       2005.426183 Ang**3

siesta: Pressure (static):
siesta:                Solid            Molecule  Units
siesta:          -0.00000242          0.00000219  Ry/Bohr**3
siesta:          -0.00022189          0.00020107  eV/Ang**3
siesta:          -0.35550411          0.32216082  kBar
(Free)E+ p_basis*V_orbitals  =       -2027.698338
(Free)Eharris+ p_basis*V_orbitals  =       -2027.698338
     spin moment: S , {S} =    0.00000       0.0       0.0   0.00000

siesta: Electric dipole (a.u.)  =   -0.861528   -0.134454    0.177390
siesta: Electric dipole (Debye) =   -2.189789   -0.341747    0.450880

cite: Please see "siesta.bib" for an exhaustive BiBTeX file.
cite: This calculation has made use of the following articles.
cite: Articles are encouraged to be cited in a published work.
        Primary SIESTA paper
          DOI: www.doi.org/10.1088/0953-8984/14/11/302


timer: Elapsed wall time (sec) =    1289.600
timer: CPU execution times (sec):

Routine            Calls   Time/call    Tot.time        %
siesta                 1    1289.041    1289.041   100.00
Setup                  1       0.253       0.253     0.02
bands                  3       0.792       2.375     0.18
KSV_init               1       0.000       0.000     0.00
IterGeom             250       5.141    1285.358    99.71
state_init           250       0.027       6.872     0.53
hsparse              250       0.002       0.470     0.04
overlap              250       0.020       4.952     0.38
Setup_H0             250       0.667     166.663    12.93
naefs                500       0.000       0.070     0.01
MolMec               500       0.000       0.001     0.00
kinefsm              500       0.016       8.209     0.64
nlefsm               500       0.090      44.930     3.49
DHSCF_Init           250       0.550     137.580    10.67
DHSCF1               250       0.009       2.203     0.17
INITMESH             250       0.000       0.002     0.00
DHSCF2               250       0.541     135.375    10.50
REMESH               250       0.074      18.507     1.44
REORD              13634       0.001      12.877     1.00
PHION                250       0.384      95.966     7.44
COMM_BSC           19270       0.001      15.060     1.17
POISON              2534       0.032      81.716     6.34
fft                 5068       0.012      58.618     4.55
IterSCF             1783       0.467     833.305    64.65
setup_H             2033       0.365     742.146    57.57
DHSCF               2284       0.433     988.949    76.72
DHSCF3              2284       0.363     829.434    64.35
rhoofd              2284       0.124     283.961    22.03
XC                  2284       0.078     177.431    13.76
GXC-CellXC          2284       0.069     156.762    12.16
cellXC              2284       0.069     156.733    12.16
vmat                2283       0.108     246.051    19.09
compute_dm          1783       0.049      86.668     6.72
diagon              1783       0.048      85.990     6.67
r-eigvec            3566       0.018      64.214     4.98
r-buildHS           3566       0.000       0.839     0.07
rdiag               3568       0.018      63.393     4.92
rdiag1              3568       0.000       1.725     0.13
rdiag2              3568       0.002       5.362     0.42
rdiag3              3568       0.011      38.994     3.03
rdiag4              3568       0.005      17.092     1.33
r-buildD            1783       0.012      21.302     1.65
MIXER               1533       0.001       1.522     0.12
PostSCF              250       1.112     277.943    21.56
DHSCF4               250       0.638     159.507    12.37
dfscf                250       0.576     143.994    11.17
overfsm              250       0.013       3.193     0.25
state_analysis       250       0.001       0.313     0.02
siesta_move          250       0.001       0.140     0.01
Analysis               1       3.427       3.427     0.27
c-eigval             152       0.015       2.341     0.18
c-buildHS            152       0.001       0.183     0.01
cdiag                152       0.014       2.158     0.17
cdiag1               152       0.002       0.256     0.02
cdiag2               152       0.006       0.883     0.07
cdiag3               152       0.007       1.017     0.08
pdos                   1       0.756       0.756     0.06
optical                1       0.000       0.000     0.00
  

>> End of run:   5-DEC-2020  19:01:07
Job completed
