Siesta Version  : master-post-4.1-266
Architecture    : unknown
Compiler version: GNU Fortran (Ubuntu 9.3.0-17ubuntu1~20.04) 9.3.0
Compiler flags  : gfortran -O2 -fPIC -ftree-vectorize
PP flags        : -DFC_HAVE_ABORT -DSIESTA__DIAG_2STAGE -DSIESTA__MRRR
Libraries       : libsiestaLAPACK.a libsiestaBLAS.a
Directory       : /home/colinw/siesta/MD_Simulations/laPAH2
SERIAL version

* Running in serial mode
>> Start of run:   5-DEC-2020  19:32:56

                           ***********************       
                           *  WELCOME TO SIESTA  *       
                           ***********************       

reinit: Reading from standard input
reinit: Dumped input in INPUT_TMP.79472
************************** Dump of input data file ****************************
NumberOfAtoms 24
SpinPolarized yes
#FixSpin .true.
#TotalSpin
NumberOfSpecies 3
MD.TypeOfRun  nose
MD.FinalTimeStep 250
MD.LengthTimeStep 1.0  fs
MD.InitialTemperature 300 K
MD.TargetTemperature  300  K
%block ChemicalSpeciesLabel
1  6  c
2  7  n
3  1  h
%endblock ChemicalSpeciesLabel
PAO.BasisSize dzp
 PAO.EnergyShift 0.02 Ry
MeshCutoff          100 Ry
MaxSCFIterations    100
DM.NumberPulay       3
DM.Tolerance         1e-3
WriteDenchar	.true.
%block ProjectedDensityOfStates
-10.0 10.0 0.200 500 eV
%endblock ProjectedDensityOfStates
NetCharge 0.00
%block BandLines
1  1.000  1.000 1.000  L
20 0.00   0.00   0.00  \Gamma
25 2.00   0.000  0.00  X
30 2.00   2.00   2.00  \Gamma
%endblock BandLines
LongOutput .true.
WriteCoorXmol .true.
LatticeConstant 1 Ang
%block LatticeVectors
  14.69106 0.0 0.0
  0.0 16.60925 0.0
  0.0 0.0 9.78103
%endblock LatticeVectors
#UseSaveData .true.
%block kgrid_Monkhorst_Pack
1 0 0 0.0
 0 1 0 0.0
 0 0 1 0.0
%endblock kgrid_Monkhorst_Pack
WriteMDXmol .true.
AtomicCoordinatesFormat Ang
%block AtomicCoordinatesAndAtomicSpecies
0.88978  -0.11337 -0.01823  1
2.38383  -0.04980 -0.01828  1
3.07388  -1.22210 -0.01849  2
4.42454  -1.20582 -0.01864  1
5.20135  -0.05925 -0.01853  1
4.51449  1.16277 -0.01843  1
4.92324  2.53503 -0.01809  1
6.17369  3.18732 -0.01814  1
6.22042  4.58641 -0.01809  1
5.04643  5.33588 -0.01805  1
3.79491  4.71361 -0.01842  1
3.76758  3.31405 -0.01815  1
2.69946  2.44950 -0.01813  2
1.73289  2.73969 -0.01814  3
3.12087  1.13965 -0.01830  1
0.54118  -1.15070 -0.01819  3
0.49235  0.38317 -0.90872  3
0.49244  0.38319 0.87231  3
4.89154  -2.18711 -0.01890  3
6.28264  -0.11178 -0.01865  3
7.09467  2.61210 -0.01819  3
7.18341  5.09118 -0.01808  3
5.10314  6.42214 -0.01801  3
2.88268  5.30115 -0.01798  3
 %endblock AtomicCoordinatesAndAtomicSpecies
************************** End of input data file *****************************

reinit: -----------------------------------------------------------------------
reinit: System Name: 
reinit: -----------------------------------------------------------------------
reinit: System Label: siesta
reinit: -----------------------------------------------------------------------

initatom: Reading input for the pseudopotentials and atomic orbitals ----------
Species number:   1 Atomic number:    6 Label: c
Species number:   2 Atomic number:    7 Label: n
Species number:   3 Atomic number:    1 Label: h

Ground state valence configuration:   2s02  2p02
Reading pseudopotential information in formatted form from c.psf

Valence configuration for pseudopotential generation:
2s( 2.00) rc: 1.54
2p( 2.00) rc: 1.54
3d( 0.00) rc: 1.54
4f( 0.00) rc: 1.54
Ground state valence configuration:   2s02  2p03
Reading pseudopotential information in formatted form from n.psf

Valence configuration for pseudopotential generation:
2s( 2.00) rc: 1.48
2p( 3.00) rc: 1.48
3d( 0.00) rc: 1.48
4f( 0.00) rc: 1.48
Ground state valence configuration:   1s01
Reading pseudopotential information in formatted form from h.psf

Valence configuration for pseudopotential generation:
1s( 1.00) rc: 1.31
2p( 0.00) rc: 1.31
3d( 0.00) rc: 0.37
4f( 0.00) rc: 1.31
For c, standard SIESTA heuristics set lmxkb to 3
 (one more than the basis l, including polarization orbitals).
Use PS.lmax or PS.KBprojectors blocks to override.
For n, standard SIESTA heuristics set lmxkb to 3
 (one more than the basis l, including polarization orbitals).
Use PS.lmax or PS.KBprojectors blocks to override.
For h, standard SIESTA heuristics set lmxkb to 2
 (one more than the basis l, including polarization orbitals).
Use PS.lmax or PS.KBprojectors blocks to override.

<basis_specs>
===============================================================================
c                    Z=   6    Mass=  12.010        Charge= 0.17977+309
Lmxo=1 Lmxkb= 3    BasisType=split      Semic=F
L=0  Nsemic=0  Cnfigmx=2
          i=1  nzeta=2  polorb=0  (2s)
            splnorm:   0.15000    
               vcte:    0.0000    
               rinn:    0.0000    
               qcoe:    0.0000    
               qyuk:    0.0000    
               qwid:   0.10000E-01
                rcs:    0.0000      0.0000    
            lambdas:    1.0000      1.0000    
L=1  Nsemic=0  Cnfigmx=2
          i=1  nzeta=2  polorb=1  (2p)
            splnorm:   0.15000    
               vcte:    0.0000    
               rinn:    0.0000    
               qcoe:    0.0000    
               qyuk:    0.0000    
               qwid:   0.10000E-01
                rcs:    0.0000      0.0000    
            lambdas:    1.0000      1.0000    
-------------------------------------------------------------------------------
L=0  Nkbl=1  erefs: 0.17977+309
L=1  Nkbl=1  erefs: 0.17977+309
L=2  Nkbl=1  erefs: 0.17977+309
L=3  Nkbl=1  erefs: 0.17977+309
===============================================================================
</basis_specs>

atom: Called for c                     (Z =   6)

read_vps: Pseudopotential generation method:
read_vps: ATM3      Troullier-Martins                       
Valence charge for ps generation:    4.00000

read_vps: Pseudopotential includes a core correction:
read_vps: Pseudo-core for xc-correction

xc_check: Exchange-correlation functional:
xc_check: Ceperley-Alder
xc_check: WARNING: Pseudopotential generated with GGA PBE functional
V l=0 = -2*Zval/r beyond r=  1.5227
V l=1 = -2*Zval/r beyond r=  1.5227
V l=2 = -2*Zval/r beyond r=  1.5227
V l=3 = -2*Zval/r beyond r=  1.5038
All V_l potentials equal beyond r=  1.5227
This should be close to max(r_c) in ps generation
All pots = -2*Zval/r beyond r=  1.5227

VLOCAL1: 99.0% of the norm of Vloc inside     18.722 Ry
VLOCAL1: 99.9% of the norm of Vloc inside     42.668 Ry
atom: Maximum radius for 4*pi*r*r*local-pseudopot. charge    1.83678
atom: Maximum radius for r*vlocal+2*Zval:    1.58088

KBgen: Kleinman-Bylander projectors: 
GHOST: No ghost state for L =  0
   l= 0   rc=  1.704034   el= -0.998584   Ekb=  5.327875   kbcos=  0.314897
GHOST: No ghost state for L =  1
   l= 1   rc=  1.704034   el= -0.383998   Ekb= -3.785479   kbcos= -0.363289
GHOST: No ghost state for L =  2
   l= 2   rc=  1.791422   el=  0.002326   Ekb= -0.971263   kbcos= -0.009325
GHOST: No ghost state for L =  3
   l= 3   rc=  1.859892   el=  0.003420   Ekb= -0.399672   kbcos= -0.001232

KBgen: Total number of  Kleinman-Bylander projectors:   16
atom: -------------------------------------------------------------------------

atom: SANKEY-TYPE ORBITALS:
atom: Selected multiple-zeta basis: split     

SPLIT: Orbitals with angular momentum L= 0

SPLIT: Basis orbitals for state 2s

SPLIT: PAO cut-off radius determined from an
SPLIT: energy shift=  0.020000 Ry

   izeta = 1
                 lambda =    1.000000
                     rc =    4.191849
                 energy =   -0.980459
                kinetic =    0.881507
    potential(screened) =   -1.861966
       potential(ionic) =   -5.449625

   izeta = 2
                 rmatch =    3.431921
              splitnorm =    0.150000
                 energy =   -0.849396
                kinetic =    1.300036
    potential(screened) =   -2.149433
       potential(ionic) =   -5.962781

SPLIT: Orbitals with angular momentum L= 1

SPLIT: Basis orbitals for state 2p

SPLIT: PAO cut-off radius determined from an
SPLIT: energy shift=  0.020000 Ry

   izeta = 1
                 lambda =    1.000000
                     rc =    4.993604
                 energy =   -0.366127
                kinetic =    2.463190
    potential(screened) =   -2.829316
       potential(ionic) =   -6.291180

   izeta = 2
                 rmatch =    3.518811
              splitnorm =    0.150000
                 energy =   -0.204163
                kinetic =    3.723883
    potential(screened) =   -3.928045
       potential(ionic) =   -7.766545

POLgen: Perturbative polarization orbital with L=  2

POLgen: Polarization orbital for state 2p

   izeta = 1
                     rc =    4.993604
                 energy =    1.232619
                kinetic =    2.527283
    potential(screened) =   -1.294664
       potential(ionic) =   -4.203101
atom: Total number of Sankey-type orbitals: 13

atm_pop: Valence configuration (for local Pseudopot. screening):
 2s( 2.00)                                                            
 2p( 2.00)                                                            
Vna: chval, zval:    4.00000   4.00000

Vna:  Cut-off radius for the neutral-atom potential:   4.993604
comcore: Pseudo-core radius Rcore=  1.791422

atom: _________________________________________________________________________

<basis_specs>
===============================================================================
n                    Z=   7    Mass=  14.010        Charge= 0.17977+309
Lmxo=1 Lmxkb= 3    BasisType=split      Semic=F
L=0  Nsemic=0  Cnfigmx=2
          i=1  nzeta=2  polorb=0  (2s)
            splnorm:   0.15000    
               vcte:    0.0000    
               rinn:    0.0000    
               qcoe:    0.0000    
               qyuk:    0.0000    
               qwid:   0.10000E-01
                rcs:    0.0000      0.0000    
            lambdas:    1.0000      1.0000    
L=1  Nsemic=0  Cnfigmx=2
          i=1  nzeta=2  polorb=1  (2p)
            splnorm:   0.15000    
               vcte:    0.0000    
               rinn:    0.0000    
               qcoe:    0.0000    
               qyuk:    0.0000    
               qwid:   0.10000E-01
                rcs:    0.0000      0.0000    
            lambdas:    1.0000      1.0000    
-------------------------------------------------------------------------------
L=0  Nkbl=1  erefs: 0.17977+309
L=1  Nkbl=1  erefs: 0.17977+309
L=2  Nkbl=1  erefs: 0.17977+309
L=3  Nkbl=1  erefs: 0.17977+309
===============================================================================
</basis_specs>

atom: Called for n                     (Z =   7)

read_vps: Pseudopotential generation method:
read_vps: ATM3      Troullier-Martins                       
Valence charge for ps generation:    5.00000

read_vps: Pseudopotential includes a core correction:
read_vps: Pseudo-core for xc-correction

xc_check: Exchange-correlation functional:
xc_check: Ceperley-Alder
xc_check: WARNING: Pseudopotential generated with GGA PBE functional
V l=0 = -2*Zval/r beyond r=  1.4606
V l=1 = -2*Zval/r beyond r=  1.4606
V l=2 = -2*Zval/r beyond r=  1.4606
V l=3 = -2*Zval/r beyond r=  1.4606
All V_l potentials equal beyond r=  1.4606
This should be close to max(r_c) in ps generation
All pots = -2*Zval/r beyond r=  1.4606

VLOCAL1: 99.0% of the norm of Vloc inside     20.347 Ry
VLOCAL1: 99.9% of the norm of Vloc inside     46.372 Ry
atom: Maximum radius for 4*pi*r*r*local-pseudopot. charge    1.76189
atom: Maximum radius for r*vlocal+2*Zval:    1.53550

KBgen: Kleinman-Bylander projectors: 
GHOST: No ghost state for L =  0
   l= 0   rc=  1.634559   el= -1.348537   Ekb=  5.297520   kbcos=  0.333054
GHOST: No ghost state for L =  1
   l= 1   rc=  1.614250   el= -0.512415   Ekb= -5.262296   kbcos= -0.428933
GHOST: No ghost state for L =  2
   l= 2   rc=  1.718383   el=  0.002346   Ekb= -1.271998   kbcos= -0.007619
GHOST: No ghost state for L =  3
   l= 3   rc=  1.761893   el=  0.003449   Ekb= -0.494630   kbcos= -0.001017

KBgen: Total number of  Kleinman-Bylander projectors:   16
atom: -------------------------------------------------------------------------

atom: SANKEY-TYPE ORBITALS:
atom: Selected multiple-zeta basis: split     

SPLIT: Orbitals with angular momentum L= 0

SPLIT: Basis orbitals for state 2s

SPLIT: PAO cut-off radius determined from an
SPLIT: energy shift=  0.020000 Ry

   izeta = 1
                 lambda =    1.000000
                     rc =    3.683980
                 energy =   -1.330014
                kinetic =    1.203086
    potential(screened) =   -2.533100
       potential(ionic) =   -8.093205

   izeta = 2
                 rmatch =    2.905100
              splitnorm =    0.150000
                 energy =   -1.134717
                kinetic =    1.810562
    potential(screened) =   -2.945280
       potential(ionic) =   -8.899916

SPLIT: Orbitals with angular momentum L= 1

SPLIT: Basis orbitals for state 2p

SPLIT: PAO cut-off radius determined from an
SPLIT: energy shift=  0.020000 Ry

   izeta = 1
                 lambda =    1.000000
                     rc =    4.388595
                 energy =   -0.493943
                kinetic =    3.501321
    potential(screened) =   -3.995264
       potential(ionic) =   -9.374806

   izeta = 2
                 rmatch =    2.978652
              splitnorm =    0.150000
                 energy =   -0.289183
                kinetic =    5.180785
    potential(screened) =   -5.469968
       potential(ionic) =  -11.438899

POLgen: Perturbative polarization orbital with L=  2

POLgen: Polarization orbital for state 2p

   izeta = 1
                     rc =    4.388595
                 energy =    1.759924
                kinetic =    3.542120
    potential(screened) =   -1.782196
       potential(ionic) =   -6.226799
atom: Total number of Sankey-type orbitals: 13

atm_pop: Valence configuration (for local Pseudopot. screening):
 2s( 2.00)                                                            
 2p( 3.00)                                                            
Vna: chval, zval:    5.00000   5.00000

Vna:  Cut-off radius for the neutral-atom potential:   4.388595
comcore: Pseudo-core radius Rcore=  1.554824

atom: _________________________________________________________________________

<basis_specs>
===============================================================================
h                    Z=   1    Mass=  1.0100        Charge= 0.17977+309
Lmxo=0 Lmxkb= 2    BasisType=split      Semic=F
L=0  Nsemic=0  Cnfigmx=1
          i=1  nzeta=2  polorb=1  (1s)
            splnorm:   0.15000    
               vcte:    0.0000    
               rinn:    0.0000    
               qcoe:    0.0000    
               qyuk:    0.0000    
               qwid:   0.10000E-01
                rcs:    0.0000      0.0000    
            lambdas:    1.0000      1.0000    
-------------------------------------------------------------------------------
L=0  Nkbl=1  erefs: 0.17977+309
L=1  Nkbl=1  erefs: 0.17977+309
L=2  Nkbl=1  erefs: 0.17977+309
===============================================================================
</basis_specs>

atom: Called for h                     (Z =   1)

read_vps: Pseudopotential generation method:
read_vps: ATM3      Troullier-Martins                       
Valence charge for ps generation:    1.00000

xc_check: Exchange-correlation functional:
xc_check: Ceperley-Alder
xc_check: WARNING: Pseudopotential generated with GGA PBE functional
V l=0 = -2*Zval/r beyond r=  1.2977
V l=1 = -2*Zval/r beyond r=  1.2815
V l=2 = -2*Zval/r beyond r=  1.2656
All V_l potentials equal beyond r=  1.2977
This should be close to max(r_c) in ps generation
All pots = -2*Zval/r beyond r=  1.2977

VLOCAL1: 99.0% of the norm of Vloc inside     25.776 Ry
VLOCAL1: 99.9% of the norm of Vloc inside     58.745 Ry
atom: Maximum radius for 4*pi*r*r*local-pseudopot. charge    1.52711
atom: Maximum radius for r*vlocal+2*Zval:    1.28155

KBgen: Kleinman-Bylander projectors: 
GHOST: No ghost state for L =  0
   l= 0   rc=  1.434438   el= -0.456815   Ekb= -1.960338   kbcos= -0.349997
GHOST: No ghost state for L =  1
   l= 1   rc=  1.508111   el=  0.001431   Ekb= -0.423993   kbcos= -0.025386
GHOST: No ghost state for L =  2
   l= 2   rc=  1.546352   el=  0.002365   Ekb= -0.376562   kbcos= -0.002012

KBgen: Total number of  Kleinman-Bylander projectors:    9
atom: -------------------------------------------------------------------------

atom: SANKEY-TYPE ORBITALS:
atom: Selected multiple-zeta basis: split     

SPLIT: Orbitals with angular momentum L= 0

SPLIT: Basis orbitals for state 1s

SPLIT: PAO cut-off radius determined from an
SPLIT: energy shift=  0.020000 Ry

   izeta = 1
                 lambda =    1.000000
                     rc =    4.828263
                 energy =   -0.438372
                kinetic =    0.921576
    potential(screened) =   -1.359947
       potential(ionic) =   -1.906664

   izeta = 2
                 rmatch =    3.903467
              splitnorm =    0.150000
                 energy =   -0.330751
                kinetic =    1.475177
    potential(screened) =   -1.805928
       potential(ionic) =   -2.389550

POLgen: Perturbative polarization orbital with L=  1

POLgen: Polarization orbital for state 1s

   izeta = 1
                     rc =    4.828263
                 energy =    0.711580
                kinetic =    1.391494
    potential(screened) =   -0.679914
       potential(ionic) =   -1.168115
atom: Total number of Sankey-type orbitals:  5

atm_pop: Valence configuration (for local Pseudopot. screening):
 1s( 1.00)                                                            
Vna: chval, zval:    1.00000   1.00000

Vna:  Cut-off radius for the neutral-atom potential:   4.828263

atom: _________________________________________________________________________

prinput: Basis input ----------------------------------------------------------

PAO.BasisType split     

%block ChemicalSpeciesLabel
    1    6 c                       # Species index, atomic number, species label
    2    7 n                       # Species index, atomic number, species label
    3    1 h                       # Species index, atomic number, species label
%endblock ChemicalSpeciesLabel

%block PAO.Basis                 # Define Basis set
c                     2                    # Species label, number of l-shells
 n=2   0   2                         # n, l, Nzeta 
   4.192      3.432   
   1.000      1.000   
 n=2   1   2 P   1                   # n, l, Nzeta, Polarization, NzetaPol
   4.994      3.519   
   1.000      1.000   
n                     2                    # Species label, number of l-shells
 n=2   0   2                         # n, l, Nzeta 
   3.684      2.905   
   1.000      1.000   
 n=2   1   2 P   1                   # n, l, Nzeta, Polarization, NzetaPol
   4.389      2.979   
   1.000      1.000   
h                     1                    # Species label, number of l-shells
 n=1   0   2 P   1                   # n, l, Nzeta, Polarization, NzetaPol
   4.828      3.903   
   1.000      1.000   
%endblock PAO.Basis

prinput: ----------------------------------------------------------------------

coor:   Atomic-coordinates input format  =     Cartesian coordinates
coor:                                          (in Angstroms)

siesta: Atomic coordinates (Bohr) and species
siesta:      1.68144  -0.21424  -0.03445  1        1
siesta:      4.50479  -0.09411  -0.03454  1        2
siesta:      5.80879  -2.30944  -0.03494  2        3
siesta:      8.36117  -2.27867  -0.03522  1        4
siesta:      9.82913  -0.11197  -0.03502  1        5
siesta:      8.53115   2.19732  -0.03483  1        6
siesta:      9.30358   4.79051  -0.03419  1        7
siesta:     11.66659   6.02316  -0.03428  1        8
siesta:     11.75489   8.66706  -0.03419  1        9
siesta:      9.53637  10.08336  -0.03411  1       10
siesta:      7.17134   8.90744  -0.03481  1       11
siesta:      7.11970   6.26265  -0.03430  1       12
siesta:      5.10124   4.62889  -0.03426  2       13
siesta:      3.27469   5.17727  -0.03428  3       14
siesta:      5.89759   2.15363  -0.03458  1       15
siesta:      1.02268  -2.17451  -0.03437  3       16
siesta:      0.93041   0.72409  -1.71723  3       17
siesta:      0.93058   0.72412   1.64843  3       18
siesta:      9.24367  -4.13304  -0.03572  3       19
siesta:     11.87247  -0.21123  -0.03524  3       20
siesta:     13.40699   4.93616  -0.03437  3       21
siesta:     13.57468   9.62094  -0.03417  3       22
siesta:      9.64354  12.13609  -0.03403  3       23
siesta:      5.44748  10.01773  -0.03398  3       24

siesta: System type = molecule  

initatomlists: Number of atoms, orbitals, and projectors:     24   232   314

coxmol: Writing XMOL coordinates into file siesta.xyz                                                          

siesta: ******************** Simulation parameters ****************************
siesta:
siesta: The following are some of the parameters of the simulation.
siesta: A complete list of the parameters used, including default values,
siesta: can be found in file out.fdf
siesta:
redata: Spin configuration                          = collinear
redata: Number of spin components                   = 2
redata: Time-Reversal Symmetry                      = T
redata: Spin spiral                                 = F
redata: Long output                                 =   T
redata: Number of Atomic Species                    =        3
redata: Charge density info will appear in .RHO file
redata: Write Mulliken Pop.                         = Atomic and Orbital charges
redata: Matel table size (NRTAB)                    =     1024
redata: Mesh Cutoff                                 =   100.0000 Ry
redata: Net charge of the system                    =     0.0000 |e|
redata: Min. number of SCF Iter                     =        0
redata: Max. number of SCF Iter                     =      100
redata: SCF convergence failure will abort job
redata: SCF mix quantity                            = Hamiltonian
redata: Mix DM or H after convergence               =   F
redata: Recompute H after scf cycle                 =   F
redata: Mix DM in first SCF step                    =   T
redata: Write Pulay info on disk                    =   F
redata: New DM Occupancy tolerance                  = 0.000000000001
redata: No kicks to SCF
redata: DM Mixing Weight for Kicks                  =     0.5000
redata: Require Harris convergence for SCF          =   F
redata: Harris energy tolerance for SCF             =     0.000100 eV
redata: Require DM convergence for SCF              =   T
redata: DM tolerance for SCF                        =     0.001000
redata: Require EDM convergence for SCF             =   F
redata: EDM tolerance for SCF                       =     0.001000 eV
redata: Require H convergence for SCF               =   T
redata: Hamiltonian tolerance for SCF               =     0.001000 eV
redata: Require (free) Energy convergence for SCF   =   F
redata: (free) Energy tolerance for SCF             =     0.000100 eV
redata: Antiferro initial spin density              =   F
redata: Using Saved Data (generic)                  =   F
redata: Use continuation files for DM               =   F
redata: Neglect nonoverlap interactions             =   F
redata: Method of Calculation                       = Diagonalization
redata: Electronic Temperature                      =   299.9869 K
redata: Fix the spin of the system                  =   F
redata: Max. number of TDED Iter                    =        1
redata: Number of TDED substeps                     =        3
redata: Dynamics option                             = Nose thermostat MD run
redata: Initial MD time step                        =        1
redata:   Final MD time step                        =      250
redata: Length of MD time step                      =     1.0000 fs
redata: Initial Temperature of MD run               =   300.0000 K
redata: Perform a MD quench                         =   F
redata: Nose mass                                   =  1360.5800 eV/fs**2
redata: Target Temperature                          =   300.0000 Kelvin
mix.SCF: Pulay mixing                            = Pulay
mix.SCF:    Variant                              = stable
mix.SCF:    History steps                        = 3
mix.SCF:    Linear mixing weight                 =     0.250000
mix.SCF:    Mixing weight                        =     0.250000
mix.SCF:    SVD condition                        = 0.1000E-07
mix.SCF: Spin-component mixing                   all
redata: ***********************************************************************

%block SCF.Mixers
  Pulay
%endblock SCF.Mixers

%block SCF.Mixer.Pulay
  # Mixing method
  method pulay
  variant stable

  # Mixing options
  weight 0.2500
  weight.linear 0.2500
  history 3
%endblock SCF.Mixer.Pulay

Size of DM history Fstack: 1
Total number of electrons:    68.000000
Total ionic charge:    68.000000
 Kpoints in:            1 . Kpoints trimmed:            1

siesta: k-point coordinates (Bohr**-1) and weights:
siesta:          1  0.000000E+00  0.000000E+00  0.000000E+00   0.100000E+01

siesta: k-grid: Number of k-points =         1
siesta: k-points from Monkhorst-Pack grid
siesta: k-cutoff (effective) =     4.891 Ang
siesta: k-point supercell and displacements
siesta: k-grid:    1   0   0      0.000
siesta: k-grid:    0   1   0      0.000
siesta: k-grid:    0   0   1      0.000
 Kpoints in:            1 . Kpoints trimmed:            1

siesta: PDOS k-point coordinates (Bohr**-1) and weights:
siesta:          1  0.000000E+00  0.000000E+00  0.000000E+00   0.100000E+01

siesta: PDOS k-grid: Number of k-points =         1
siesta: PDOS k-points from Monkhorst-Pack grid
siesta: PDOS k-cutoff (effective) =     0.000 Ang
siesta: PDOS k-point supercell and displacements
siesta: k-grid:    1   0   0      0.000
siesta: k-grid:    0   1   0      0.000
siesta: k-grid:    0   0   1      0.000

diag: Algorithm                                     = D&C
diag: Used triangular part                          = Lower
diag: Absolute tolerance                            =  0.100E-15
diag: Orthogonalization factor                      =  0.100E-05
diag: Memory factor                                 =  1.0000
Using LatticeConstant from fdf file for BandLinesScale:    1.889727 Bohr
Beware any cell changes by the end of the run
Using LatticeConstant from fdf file for BandLinesScale:    1.889727 Bohr
Beware any cell changes by the end of the run


ts: **************************************************************
ts: Save H and S matrices                           =    F
ts: Save DM and EDM matrices                        =    F
ts: Only save the overlap matrix S                  =    F
ts: **************************************************************

************************ Begin: TS CHECKS AND WARNINGS ************************
************************ End: TS CHECKS AND WARNINGS **************************


                     ====================================
                        Begin MD step =      1
                     ====================================

outcoor: Atomic coordinates (Ang):                          
    0.88978000   -0.11337000   -0.01823000   1       1  c
    2.38383000   -0.04980000   -0.01828000   1       2  c
    3.07388000   -1.22210000   -0.01849000   2       3  n
    4.42454000   -1.20582000   -0.01864000   1       4  c
    5.20135000   -0.05925000   -0.01853000   1       5  c
    4.51449000    1.16277000   -0.01843000   1       6  c
    4.92324000    2.53503000   -0.01809000   1       7  c
    6.17369000    3.18732000   -0.01814000   1       8  c
    6.22042000    4.58641000   -0.01809000   1       9  c
    5.04643000    5.33588000   -0.01805000   1      10  c
    3.79491000    4.71361000   -0.01842000   1      11  c
    3.76758000    3.31405000   -0.01815000   1      12  c
    2.69946000    2.44950000   -0.01813000   2      13  n
    1.73289000    2.73969000   -0.01814000   3      14  h
    3.12087000    1.13965000   -0.01830000   1      15  c
    0.54118000   -1.15070000   -0.01819000   3      16  h
    0.49235000    0.38317000   -0.90872000   3      17  h
    0.49244000    0.38319000    0.87231000   3      18  h
    4.89154000   -2.18711000   -0.01890000   3      19  h
    6.28264000   -0.11178000   -0.01865000   3      20  h
    7.09467000    2.61210000   -0.01819000   3      21  h
    7.18341000    5.09118000   -0.01808000   3      22  h
    5.10314000    6.42214000   -0.01801000   3      23  h
    2.88268000    5.30115000   -0.01798000   3      24  h

outcell: Unit cell vectors (Ang):
       14.691060    0.000000    0.000000
        0.000000   16.609250    0.000000
        0.000000    0.000000    9.781030

outcell: Cell vector modules (Ang)   :   14.691060   16.609250    9.781030
outcell: Cell angles (23,13,12) (deg):     90.0000     90.0000     90.0000
outcell: Cell volume (Ang**3)        :   2386.6446
<dSpData1D:S at geom step 1
  <sparsity:sparsity for geom step 1
    nrows_g=232 nrows=232 sparsity=.8710 nnzs=46882, refcount: 7>
  <dData1D:(new from dSpData1D) n=46882, refcount: 1>
refcount: 1>
new_DM -- step:     1
Initializing Density Matrix...
DM filled with atomic data:
<dSpData2D:DM initialized from atoms
  <sparsity:sparsity for geom step 1
    nrows_g=232 nrows=232 sparsity=.8710 nnzs=46882, refcount: 8>
  <dData2D:DM n=46882 m=2, refcount: 1>
refcount: 1>
     spin moment: S , {S} =   40.00000       0.0       0.0  40.00000
No. of atoms with KB's overlaping orbs in proc 0. Max # of overlaps:      24     159

InitMesh: MESH = 90 x 100 x 60 = 540000
InitMesh: Mesh cutoff (required, used) =   100.000   100.185 Ry
New grid distribution [1]: sub = 2

stepf: Fermi-Dirac step function

siesta: Program's energy decomposition (eV):
siesta: Ebs     =      -724.668463
siesta: Eions   =      4087.300434
siesta: Ena     =       830.904606
siesta: Ekin    =      1911.586535
siesta: Enl     =      -278.576673
siesta: Eso     =         0.000000
siesta: Edftu   =         0.000000
siesta: DEna    =      -103.392758
siesta: DUscf   =        16.180665
siesta: DUext   =         0.000000
siesta: Exc     =      -931.350944
siesta: eta*DQ  =         0.000000
siesta: Emadel  =         0.000000
siesta: Emeta   =         0.000000
siesta: Emolmec =         0.000000
siesta: Ekinion =         0.000000
siesta: Eharris =     -2631.984460
siesta: Etot    =     -2641.949002
siesta: FreeEng =     -2641.949007

        iscf     Eharris(eV)        E_KS(eV)     FreeEng(eV)     dDmax    Ef(eV) dHmax(eV)
   scf:    1    -2631.984460    -2641.949002    -2641.949007  0.993201 -4.976581  9.680773
     spin moment: S , {S} =    1.99998       0.0       0.0   1.99998
timer: Routine,Calls,Time,% = IterSCF        1       1.168   5.56
   scf:    2    -2653.855670    -2649.880847    -2649.880847  0.223348 -4.237693  7.686405
     spin moment: S , {S} =    0.00000       0.0       0.0   0.00000
   scf:    3    -2651.911638    -2651.073637    -2651.073637  0.037059 -3.713624  2.754399
     spin moment: S , {S} =    0.00000       0.0       0.0   0.00000
   scf:    4    -2651.664927    -2651.436537    -2651.436537  0.039867 -2.860066  1.671511
     spin moment: S , {S} =    0.00000       0.0       0.0   0.00000
   scf:    5    -2651.580476    -2651.513590    -2651.513590  0.014340 -2.724202  0.609476
     spin moment: S , {S} =    0.00000       0.0       0.0   0.00000
   scf:    6    -2651.565159    -2651.539449    -2651.539449  0.010461 -2.577034  0.242931
     spin moment: S , {S} =    0.00000       0.0       0.0   0.00000
   scf:    7    -2651.550409    -2651.544811    -2651.544811  0.006182 -2.510402  0.069138
     spin moment: S , {S} =    0.00000       0.0       0.0   0.00000
   scf:    8    -2651.546697    -2651.545777    -2651.545777  0.001796 -2.509908  0.039782
     spin moment: S , {S} =    0.00000       0.0       0.0   0.00000
   scf:    9    -2651.546360    -2651.546066    -2651.546066  0.000918 -2.510677  0.023027
     spin moment: S , {S} =    0.00000       0.0       0.0   0.00000
   scf:   10    -2651.546305    -2651.546181    -2651.546181  0.000492 -2.510344  0.014896
     spin moment: S , {S} =    0.00000       0.0       0.0   0.00000
   scf:   11    -2651.546299    -2651.546237    -2651.546237  0.000422 -2.509229  0.007874
     spin moment: S , {S} =    0.00000       0.0       0.0   0.00000
   scf:   12    -2651.546270    -2651.546252    -2651.546252  0.000239 -2.508297  0.003326
     spin moment: S , {S} =    0.00000       0.0       0.0   0.00000
   scf:   13    -2651.546257    -2651.546254    -2651.546254  0.000078 -2.507915  0.001499
     spin moment: S , {S} =   -0.00000       0.0       0.0  -0.00000
   scf:   14    -2651.546255    -2651.546255    -2651.546255  0.000040 -2.507763  0.000778
     spin moment: S , {S} =    0.00000       0.0       0.0   0.00000

SCF Convergence by DM+H criterion
max |DM_out - DM_in|         :     0.0000402529
max |H_out - H_in|      (eV) :     0.0007779613
SCF cycle converged after 14 iterations

Using DM_out to compute the final energy and forces
No. of atoms with KB's overlaping orbs in proc 0. Max # of overlaps:      24     159

siesta: E_KS(eV) =            -2651.5463

siesta: E_KS - E_eggbox =     -2651.5463
     spin moment: S , {S} =    0.00000       0.0       0.0   0.00000

siesta: Atomic forces (eV/Ang):
     1    0.822508    0.142775    0.021213
     2    0.788686   -1.496465    0.019275
     3   -0.001152    1.258278    0.400384
     4   -0.930426    0.329117    0.020087
     5   -0.486858    0.387278    0.019036
     6    1.404431   -0.679688    0.021862
     7    1.681265    0.093816    0.017057
     8   -0.523802    0.289534    0.020392
     9    0.006198   -0.899767    0.019826
    10   -0.688316   -0.358184    0.017612
    11    0.500814   -0.148287    0.024301
    12   -1.016350    0.348966    0.019166
    13   -0.468738    0.992110    0.392611
    14   -0.555235    0.145629   -0.000511
    15   -0.960271    0.678436    0.020191
    16    0.037570   -0.623943   -0.001214
    17   -0.379180    0.387693   -0.548552
    18   -0.377699    0.385021    0.549618
    19    0.360579   -0.720778    0.002606
    20    0.841544   -0.030909    0.000038
    21    0.624850   -0.418823    0.000223
    22    0.589224    0.286437   -0.000986
    23   -0.000238    0.653369   -0.000949
    24   -0.637692    0.386051   -0.000361
----------------------------------------
   Tot    0.631713    1.387665    1.032924
----------------------------------------
   Max    1.681265
   Res    0.566668    sqrt( Sum f_i^2 / 3N )
----------------------------------------
   Max    1.681265    constrained

Stress tensor Voigt[x,y,z,yz,xz,xy] (kbar):       -5.99       -3.38       -1.41       -0.08       -0.07        1.98
(Free)E + p*V (eV/cell)    -2646.1911
Target enthalpy (eV/cell)    -2651.5463

siesta: Stress tensor (static) (eV/Ang**3):
        -0.003512    0.001162    0.000002
         0.001162   -0.001885    0.000002
         0.000002    0.000002   -0.000592

siesta: Pressure (static):          3.19871628  kBar

siesta: Stress tensor (total) (eV/Ang**3):
        -0.003739    0.001233   -0.000046
         0.001233   -0.002110   -0.000050
        -0.000046   -0.000050   -0.000882

siesta: Pressure (total):          3.59498448  kBar

mulliken: Atomic and Orbital Populations:

mulliken: Spin UP 

Species: c                   
Atom  Qatom  Qorb
               2s      2s      2py     2pz     2px     2py     2pz     2px     
               3Pdxy   3Pdyz   3Pdz2   3Pdxz   3Pdx2-y2
   1  1.697  -0.040   0.405   0.064   0.059   0.202   0.360   0.354   0.253
              0.008   0.005   0.006   0.013   0.008
   2  2.054   0.268   0.238   0.322   0.400   0.217   0.172   0.078   0.248
              0.031   0.021   0.002   0.017   0.040
   4  1.960   0.190   0.274   0.097   0.403   0.301   0.347   0.073   0.184
              0.039   0.007   0.002   0.019   0.024
   5  1.888   0.151   0.295   0.259   0.388   0.047   0.230   0.082   0.377
              0.013   0.017   0.001   0.004   0.023
   6  1.984   0.216   0.265   0.201   0.370   0.241   0.266   0.104   0.239
              0.021   0.020   0.001   0.014   0.026
   7  1.987   0.214   0.265   0.237   0.380   0.196   0.242   0.104   0.268
              0.025   0.017   0.002   0.015   0.022
   8  1.890   0.154   0.296   0.200   0.387   0.108   0.271   0.078   0.333
              0.024   0.014   0.001   0.008   0.016
   9  1.879   0.145   0.297   0.195   0.393   0.093   0.267   0.083   0.343
              0.022   0.013   0.001   0.007   0.018
  10  1.873   0.144   0.300   0.054   0.378   0.233   0.374   0.084   0.243
              0.015   0.004   0.001   0.018   0.025
  11  1.896   0.152   0.293   0.194   0.405   0.111   0.269   0.084   0.331
              0.019   0.013   0.001   0.007   0.017
  12  2.046   0.258   0.241   0.231   0.392   0.280   0.248   0.093   0.187
              0.034   0.024   0.003   0.025   0.030
  15  2.066   0.266   0.236   0.266   0.401   0.263   0.191   0.093   0.240
              0.031   0.030   0.003   0.017   0.029

Species: n                   
Atom  Qatom  Qorb
               2s      2s      2py     2pz     2px     2py     2pz     2px     
               3Pdxy   3Pdyz   3Pdz2   3Pdxz   3Pdx2-y2
   3  2.395   0.302   0.304   0.570   0.448   0.296   0.105   0.081   0.245
              0.011   0.007   0.004   0.010   0.013
  13  2.203   0.103   0.382   0.154   0.546   0.059   0.341   0.162   0.408
              0.013   0.012   0.003   0.005   0.016

Species: h                   
Atom  Qatom  Qorb
               1s      1s      2Ppy    2Ppz    2Ppx    
  14  0.609   0.279   0.230   0.022   0.044   0.034
  16  0.600   0.375   0.173   0.017   0.018   0.016
  17  0.604   0.376   0.173   0.019   0.016   0.018
  18  0.604   0.377   0.173   0.019   0.017   0.018
  19  0.621   0.416   0.158   0.022   0.017   0.008
  20  0.631   0.419   0.155   0.013   0.019   0.025
  21  0.628   0.417   0.156   0.016   0.019   0.021
  22  0.628   0.419   0.153   0.015   0.020   0.021
  23  0.625   0.416   0.155   0.023   0.019   0.013
  24  0.631   0.423   0.151   0.016   0.020   0.021

mulliken: Qtot =       34.000

mulliken: Spin DOWN 

Species: c                   
Atom  Qatom  Qorb
               2s      2s      2py     2pz     2px     2py     2pz     2px     
               3Pdxy   3Pdyz   3Pdz2   3Pdxz   3Pdx2-y2
   1  1.697  -0.040   0.405   0.064   0.059   0.202   0.360   0.354   0.253
              0.008   0.005   0.006   0.013   0.008
   2  2.054   0.268   0.238   0.322   0.400   0.217   0.172   0.078   0.248
              0.031   0.021   0.002   0.017   0.040
   4  1.960   0.190   0.274   0.097   0.404   0.301   0.347   0.073   0.184
              0.039   0.007   0.002   0.019   0.024
   5  1.888   0.151   0.295   0.259   0.388   0.047   0.230   0.082   0.377
              0.013   0.017   0.001   0.004   0.023
   6  1.984   0.216   0.265   0.201   0.370   0.241   0.266   0.104   0.239
              0.021   0.020   0.001   0.014   0.026
   7  1.987   0.214   0.265   0.237   0.380   0.196   0.242   0.104   0.268
              0.025   0.017   0.002   0.015   0.022
   8  1.890   0.154   0.296   0.200   0.387   0.108   0.271   0.078   0.333
              0.024   0.014   0.001   0.008   0.016
   9  1.879   0.145   0.297   0.195   0.393   0.093   0.267   0.083   0.343
              0.022   0.013   0.001   0.007   0.018
  10  1.873   0.144   0.300   0.054   0.378   0.233   0.374   0.084   0.243
              0.015   0.004   0.001   0.018   0.025
  11  1.896   0.152   0.293   0.194   0.405   0.111   0.269   0.084   0.331
              0.019   0.013   0.001   0.007   0.017
  12  2.047   0.258   0.241   0.231   0.392   0.280   0.248   0.093   0.187
              0.034   0.024   0.003   0.025   0.030
  15  2.066   0.266   0.236   0.266   0.401   0.263   0.191   0.092   0.240
              0.031   0.030   0.003   0.017   0.029

Species: n                   
Atom  Qatom  Qorb
               2s      2s      2py     2pz     2px     2py     2pz     2px     
               3Pdxy   3Pdyz   3Pdz2   3Pdxz   3Pdx2-y2
   3  2.394   0.302   0.304   0.570   0.448   0.296   0.105   0.081   0.245
              0.011   0.007   0.004   0.010   0.013
  13  2.203   0.103   0.382   0.154   0.546   0.059   0.341   0.162   0.408
              0.013   0.012   0.003   0.005   0.016

Species: h                   
Atom  Qatom  Qorb
               1s      1s      2Ppy    2Ppz    2Ppx    
  14  0.609   0.279   0.230   0.022   0.044   0.034
  16  0.600   0.375   0.173   0.017   0.018   0.016
  17  0.604   0.376   0.173   0.019   0.016   0.018
  18  0.604   0.377   0.173   0.019   0.017   0.018
  19  0.621   0.416   0.158   0.022   0.017   0.008
  20  0.631   0.419   0.155   0.013   0.019   0.025
  21  0.628   0.417   0.156   0.016   0.019   0.021
  22  0.628   0.419   0.153   0.015   0.020   0.021
  23  0.625   0.416   0.155   0.023   0.019   0.013
  24  0.631   0.423   0.151   0.016   0.020   0.021

mulliken: Qtot =       34.000

siesta: Temp_ion =     300.000 K

                     ====================================
                        Begin MD step =      2
                     ====================================

outcoor: Atomic coordinates (Ang):                          
    0.89556492   -0.12321559   -0.01669821   1       1  c
    2.38257839   -0.04850016   -0.01910091   1       2  c
    3.07612909   -1.22472723   -0.02282281   2       3  n
    4.42301820   -1.20217043   -0.01306771   1       4  c
    5.19745951   -0.05471335   -0.02558807   1       5  c
    4.51012849    1.16684400   -0.00549420   1       6  c
    4.92532389    2.54043373   -0.01799378   1       7  c
    6.16910056    3.18223561   -0.02496126   1       8  c
    6.22406336    4.58275953   -0.02424183   1       9  c
    5.04997978    5.33903784   -0.01587313   1      10  c
    3.79692283    4.71685893   -0.01831056   1      11  c
    3.77210490    3.31110290   -0.01394021   1      12  c
    2.69854470    2.45069986   -0.01874087   2      13  n
    1.69978116    2.71711577   -0.03879517   3      14  h
    3.11885790    1.13741601   -0.01733045   1      15  c
    0.53091717   -1.15341309   -0.02424368   3      16  h
    0.49055689    0.37453760   -0.92229550   3      17  h
    0.50954223    0.38024197    0.89432301   3      18  h
    4.88137542   -2.17242193   -0.02381280   3      19  h
    6.26836243   -0.10350380   -0.01829321   3      20  h
    7.10524290    2.62163756   -0.03227147   3      21  h
    7.19573134    5.08432166    0.01135391   3      22  h
    5.10835495    6.41482221   -0.01946202   3      23  h
    2.84432954    5.32693893   -0.01584076   3      24  h

outcell: Unit cell vectors (Ang):
       14.691060    0.000000    0.000000
        0.000000   16.609250    0.000000
        0.000000    0.000000    9.781030

outcell: Cell vector modules (Ang)   :   14.691060   16.609250    9.781030
outcell: Cell angles (23,13,12) (deg):     90.0000     90.0000     90.0000
outcell: Cell volume (Ang**3)        :   2386.6446
<dSpData1D:S at geom step 2
  <sparsity:sparsity for geom step 2
    nrows_g=232 nrows=232 sparsity=.8621 nnzs=46402, refcount: 7>
  <dData1D:(new from dSpData1D) n=46402, refcount: 1>
refcount: 1>
new_DM -- step:     2
Re-using DM from previous geometries...
Number of DMs in history: 1
 DM extrapolation coefficients: 
1   1.00000
New DM after history re-use:
<dSpData2D:SpM extrapolated using coords
  <sparsity:sparsity for geom step 2
    nrows_g=232 nrows=232 sparsity=.8621 nnzs=46402, refcount: 9>
  <dData2D:(temp array for extrapolation) n=46402 m=2, refcount: 1>
refcount: 1>
     spin moment: S , {S} =   -0.00000       0.0       0.0  -0.00000
No. of atoms with KB's overlaping orbs in proc 0. Max # of overlaps:      24     153

InitMesh: MESH = 90 x 100 x 60 = 540000
InitMesh: Mesh cutoff (required, used) =   100.000   100.185 Ry
New grid distribution [1]: sub = 2

        iscf     Eharris(eV)        E_KS(eV)     FreeEng(eV)     dDmax    Ef(eV) dHmax(eV)
   scf:    1    -2651.420809    -2651.406109    -2651.406109  0.013975 -2.505281  1.066288
     spin moment: S , {S} =   -0.00000       0.0       0.0  -0.00000
   scf:    2    -2649.475377    -2650.863341    -2650.863341  0.028977 -3.481935  2.899533
     spin moment: S , {S} =    0.00000       0.0       0.0   0.00000
   scf:    3    -2651.642862    -2651.488615    -2651.488615  0.021427 -2.442069  0.087413
     spin moment: S , {S} =    0.00000       0.0       0.0   0.00000
   scf:    4    -2651.489342    -2651.489062    -2651.489062  0.000655 -2.444089  0.020585
     spin moment: S , {S} =   -0.00000       0.0       0.0  -0.00000
   scf:    5    -2651.489155    -2651.489116    -2651.489116  0.000134 -2.445132  0.009547
     spin moment: S , {S} =    0.00000       0.0       0.0   0.00000
   scf:    6    -2651.489137    -2651.489127    -2651.489127  0.000093 -2.445145  0.002125
     spin moment: S , {S} =   -0.00000       0.0       0.0  -0.00000
   scf:    7    -2651.489130    -2651.489129    -2651.489129  0.000039 -2.444981  0.000928
     spin moment: S , {S} =    0.00000       0.0       0.0   0.00000

SCF Convergence by DM+H criterion
max |DM_out - DM_in|         :     0.0000386219
max |H_out - H_in|      (eV) :     0.0009282367
SCF cycle converged after 7 iterations

Using DM_out to compute the final energy and forces
No. of atoms with KB's overlaping orbs in proc 0. Max # of overlaps:      24     153

siesta: E_KS(eV) =            -2651.4891
     spin moment: S , {S} =    0.00000       0.0       0.0   0.00000

siesta: Atomic forces (eV/Ang):
     1    0.329943    0.719488   -0.005822
     2    0.973872   -1.861283   -0.035687
     3   -0.219486    1.382540    0.558139
     4   -1.041454    0.692468   -0.138128
     5   -0.824389    0.492306    0.203979
     6    1.588316   -0.798306   -0.187242
     7    1.402583   -0.470276    0.069350
     8    0.113959    0.583429    0.027439
     9    0.012716   -0.760263    0.142055
    10   -0.671918   -0.834134   -0.034350
    11   -0.625805    0.423864    0.041905
    12   -1.497845    0.918164   -0.048653
    13   -1.441841    1.010714    0.405951
    14    0.528083    0.042963    0.026502
    15   -0.958912    0.960911    0.084291
    16    0.097708   -0.703495    0.049874
    17   -0.223610    0.240070   -0.077052
    18   -0.285609    0.165751    0.068906
    19    0.625494   -1.185277    0.013267
    20    1.256209   -0.060256   -0.017067
    21    0.397972   -0.414447    0.018398
    22    0.363651    0.179391   -0.076632
    23    0.028164    1.043005    0.020831
    24    0.646917   -0.438106   -0.007931
----------------------------------------
   Tot    0.574718    1.329223    1.102323
----------------------------------------
   Max    1.861283
   Res    0.674118    sqrt( Sum f_i^2 / 3N )
----------------------------------------
   Max    1.861283    constrained

Stress tensor Voigt[x,y,z,yz,xz,xy] (kbar):       -5.05       -3.32       -0.82       -0.04       -0.04        1.54
(Free)E + p*V (eV/cell)    -2646.9281
Target enthalpy (eV/cell)    -2651.4891

siesta: Stress tensor (static) (eV/Ang**3):
        -0.002925    0.000893    0.000023
         0.000893   -0.001844    0.000023
         0.000023    0.000023   -0.000222

siesta: Pressure (static):          2.66559748  kBar

siesta: Stress tensor (total) (eV/Ang**3):
        -0.003151    0.000964   -0.000024
         0.000964   -0.002070   -0.000028
        -0.000024   -0.000028   -0.000512

siesta: Pressure (total):          3.06186569  kBar

mulliken: Atomic and Orbital Populations:

mulliken: Spin UP 

Species: c                   
Atom  Qatom  Qorb
               2s      2s      2py     2pz     2px     2py     2pz     2px     
               3Pdxy   3Pdyz   3Pdz2   3Pdxz   3Pdx2-y2
   1  1.700  -0.031   0.401   0.068   0.061   0.203   0.356   0.348   0.253
              0.008   0.005   0.006   0.013   0.008
   2  2.052   0.265   0.240   0.321   0.399   0.214   0.173   0.078   0.250
              0.031   0.020   0.002   0.018   0.040
   4  1.959   0.185   0.276   0.093   0.402   0.301   0.353   0.074   0.186
              0.039   0.007   0.002   0.019   0.024
   5  1.886   0.147   0.296   0.259   0.388   0.044   0.231   0.082   0.381
              0.013   0.017   0.001   0.004   0.023
   6  1.983   0.216   0.265   0.199   0.370   0.240   0.266   0.103   0.240
              0.021   0.020   0.001   0.014   0.026
   7  1.987   0.212   0.265   0.237   0.377   0.195   0.243   0.106   0.270
              0.025   0.016   0.002   0.016   0.022
   8  1.891   0.155   0.295   0.205   0.386   0.104   0.267   0.079   0.336
              0.023   0.014   0.001   0.009   0.016
   9  1.879   0.148   0.296   0.197   0.395   0.095   0.265   0.082   0.341
              0.021   0.013   0.001   0.007   0.018
  10  1.873   0.142   0.301   0.051   0.378   0.234   0.378   0.084   0.242
              0.015   0.004   0.001   0.018   0.025
  11  1.901   0.167   0.287   0.200   0.409   0.122   0.261   0.081   0.317
              0.019   0.013   0.001   0.007   0.017
  12  2.049   0.259   0.241   0.232   0.392   0.283   0.248   0.093   0.185
              0.034   0.024   0.003   0.025   0.031
  15  2.065   0.264   0.237   0.265   0.401   0.263   0.192   0.093   0.240
              0.031   0.030   0.003   0.017   0.029

Species: n                   
Atom  Qatom  Qorb
               2s      2s      2py     2pz     2px     2py     2pz     2px     
               3Pdxy   3Pdyz   3Pdz2   3Pdxz   3Pdx2-y2
   3  2.396   0.304   0.303   0.571   0.449   0.297   0.103   0.080   0.244
              0.011   0.007   0.004   0.010   0.013
  13  2.210   0.114   0.377   0.162   0.553   0.064   0.334   0.157   0.400
              0.013   0.012   0.003   0.005   0.016

Species: h                   
Atom  Qatom  Qorb
               1s      1s      2Ppy    2Ppz    2Ppx    
  14  0.603   0.283   0.221   0.021   0.042   0.035
  16  0.600   0.375   0.174   0.017   0.018   0.016
  17  0.602   0.378   0.171   0.019   0.017   0.018
  18  0.603   0.378   0.171   0.019   0.017   0.018
  19  0.623   0.415   0.160   0.022   0.018   0.008
  20  0.633   0.419   0.156   0.013   0.019   0.025
  21  0.627   0.417   0.155   0.016   0.018   0.021
  22  0.627   0.419   0.152   0.015   0.020   0.021
  23  0.627   0.415   0.156   0.023   0.019   0.013
  24  0.624   0.425   0.144   0.015   0.019   0.021

mulliken: Qtot =       34.000

mulliken: Spin DOWN 

Species: c                   
Atom  Qatom  Qorb
               2s      2s      2py     2pz     2px     2py     2pz     2px     
               3Pdxy   3Pdyz   3Pdz2   3Pdxz   3Pdx2-y2
   1  1.700  -0.031   0.401   0.068   0.061   0.203   0.356   0.348   0.253
              0.008   0.005   0.006   0.013   0.008
   2  2.052   0.265   0.240   0.321   0.399   0.214   0.173   0.078   0.250
              0.031   0.020   0.002   0.018   0.040
   4  1.959   0.185   0.276   0.093   0.402   0.301   0.353   0.074   0.186
              0.039   0.007   0.002   0.019   0.024
   5  1.886   0.147   0.296   0.259   0.388   0.044   0.231   0.082   0.381
              0.013   0.017   0.001   0.004   0.023
   6  1.983   0.216   0.265   0.199   0.370   0.240   0.266   0.103   0.240
              0.021   0.020   0.001   0.014   0.026
   7  1.987   0.212   0.265   0.237   0.377   0.195   0.243   0.106   0.270
              0.025   0.016   0.002   0.016   0.022
   8  1.891   0.155   0.295   0.205   0.386   0.104   0.267   0.079   0.336
              0.023   0.014   0.001   0.009   0.016
   9  1.879   0.148   0.296   0.197   0.395   0.095   0.265   0.082   0.341
              0.021   0.013   0.001   0.007   0.018
  10  1.873   0.142   0.301   0.051   0.378   0.234   0.378   0.084   0.242
              0.015   0.004   0.001   0.018   0.025
  11  1.901   0.167   0.287   0.200   0.409   0.122   0.261   0.081   0.317
              0.019   0.013   0.001   0.007   0.017
  12  2.049   0.259   0.241   0.232   0.392   0.283   0.248   0.093   0.185
              0.034   0.024   0.003   0.025   0.031
  15  2.065   0.264   0.237   0.265   0.401   0.263   0.192   0.093   0.240
              0.031   0.030   0.003   0.017   0.029

Species: n                   
Atom  Qatom  Qorb
               2s      2s      2py     2pz     2px     2py     2pz     2px     
               3Pdxy   3Pdyz   3Pdz2   3Pdxz   3Pdx2-y2
   3  2.396   0.304   0.303   0.571   0.449   0.297   0.103   0.080   0.244
              0.011   0.007   0.004   0.010   0.013
  13  2.210   0.114   0.377   0.162   0.553   0.064   0.334   0.157   0.400
              0.013   0.012   0.003   0.005   0.016

Species: h                   
Atom  Qatom  Qorb
               1s      1s      2Ppy    2Ppz    2Ppx    
  14  0.603   0.283   0.221   0.021   0.042   0.035
  16  0.600   0.375   0.174   0.017   0.018   0.016
  17  0.602   0.378   0.171   0.019   0.017   0.018
  18  0.603   0.378   0.171   0.019   0.017   0.018
  19  0.623   0.415   0.160   0.022   0.018   0.008
  20  0.633   0.419   0.156   0.013   0.019   0.025
  21  0.627   0.417   0.155   0.016   0.018   0.021
  22  0.627   0.419   0.152   0.015   0.020   0.021
  23  0.627   0.415   0.156   0.023   0.019   0.013
  24  0.624   0.425   0.144   0.015   0.019   0.021

mulliken: Qtot =       34.000

siesta: Temp_ion =     282.096 K

                     ====================================
                        Begin MD step =      3
                     ====================================

outcoor: Atomic coordinates (Ang):                          
    0.90161322   -0.13248771   -0.01517101   1       1  c
    2.38210349   -0.04868484   -0.01995032   1       2  c
    3.07822820   -1.22640926   -0.02677416   2       3  n
    4.42066567   -1.19796840   -0.00760537   1       4  c
    5.19291134   -0.04978385   -0.03248371   1       5  c
    4.50703366    1.17028144    0.00729277   1       6  c
    4.92852657    2.54546259   -0.01784224   1       7  c
    6.16460183    3.17761636   -0.03176089   1       8  c
    6.22771700    4.57850254   -0.03028059   1       9  c
    5.05299378    5.34153049   -0.01372356   1      10  c
    3.79843660    4.72044606   -0.01816769   1      11  c
    3.77543528    3.30888803   -0.00976907   1      12  c
    2.69664352    2.45259083   -0.01907421   2      13  n
    1.67167957    2.69494813   -0.05919979   3      14  h
    3.11608089    1.13594835   -0.01629363   1      15  c
    0.52158065   -1.16279850   -0.02982458   3      16  h
    0.48664292    0.36818178   -0.93660233   3      17  h
    0.52393631    0.37886587    0.91699042   3      18  h
    4.87714286   -2.16897492   -0.02859996   3      19  h
    6.26599866   -0.09579877   -0.01809828   3      20  h
    7.11959074    2.62724473   -0.04617900   3      21  h
    7.21150216    5.07916448    0.04006217   3      22  h
    5.11383723    6.41739638   -0.02071652   3      23  h
    2.81211320    5.34857371   -0.01377666   3      24  h

outcell: Unit cell vectors (Ang):
       14.691060    0.000000    0.000000
        0.000000   16.609250    0.000000
        0.000000    0.000000    9.781030

outcell: Cell vector modules (Ang)   :   14.691060   16.609250    9.781030
outcell: Cell angles (23,13,12) (deg):     90.0000     90.0000     90.0000
outcell: Cell volume (Ang**3)        :   2386.6446
<dSpData1D:S at geom step 3
  <sparsity:sparsity for geom step 3
    nrows_g=232 nrows=232 sparsity=.8623 nnzs=46410, refcount: 7>
  <dData1D:(new from dSpData1D) n=46410, refcount: 1>
refcount: 1>
new_DM -- step:     3
Re-using DM from previous geometries...
Number of DMs in history: 1
 DM extrapolation coefficients: 
1   1.00000
New DM after history re-use:
<dSpData2D:SpM extrapolated using coords
  <sparsity:sparsity for geom step 3
    nrows_g=232 nrows=232 sparsity=.8623 nnzs=46410, refcount: 9>
  <dData2D:(temp array for extrapolation) n=46410 m=2, refcount: 1>
refcount: 1>
     spin moment: S , {S} =   -0.00000       0.0       0.0  -0.00000
Note: For starting DM, Qtot, Tr[D*S] =         68.00000000         67.91992929
No. of atoms with KB's overlaping orbs in proc 0. Max # of overlaps:      24     153

InitMesh: MESH = 90 x 100 x 60 = 540000
InitMesh: Mesh cutoff (required, used) =   100.000   100.185 Ry
New grid distribution [1]: sub = 2

        iscf     Eharris(eV)        E_KS(eV)     FreeEng(eV)     dDmax    Ef(eV) dHmax(eV)
   scf:    1    -2651.444023    -2651.311170    -2651.311170  0.011458 -2.401626  0.780688
     spin moment: S , {S} =   -0.00000       0.0       0.0  -0.00000
   scf:    2    -2650.114248    -2650.979780    -2650.979780  0.024431 -3.665194  2.234787
     spin moment: S , {S} =    0.00000       0.0       0.0   0.00000
   scf:    3    -2651.469258    -2651.369045    -2651.369045  0.017601 -2.423386  0.054513
     spin moment: S , {S} =   -0.00000       0.0       0.0  -0.00000
   scf:    4    -2651.369514    -2651.369332    -2651.369332  0.000526 -2.430002  0.014657
     spin moment: S , {S} =   -0.00000       0.0       0.0  -0.00000
   scf:    5    -2651.369386    -2651.369362    -2651.369362  0.000124 -2.431929  0.006430
     spin moment: S , {S} =    0.00000       0.0       0.0   0.00000
   scf:    6    -2651.369374    -2651.369368    -2651.369368  0.000066 -2.432336  0.002332
     spin moment: S , {S} =    0.00000       0.0       0.0   0.00000
   scf:    7    -2651.369371    -2651.369370    -2651.369370  0.000040 -2.432467  0.000972
     spin moment: S , {S} =   -0.00000       0.0       0.0  -0.00000

SCF Convergence by DM+H criterion
max |DM_out - DM_in|         :     0.0000395946
max |H_out - H_in|      (eV) :     0.0009716424
SCF cycle converged after 7 iterations

Using DM_out to compute the final energy and forces
No. of atoms with KB's overlaping orbs in proc 0. Max # of overlaps:      24     153

siesta: E_KS(eV) =            -2651.3694
     spin moment: S , {S} =   -0.00000       0.0       0.0  -0.00000

siesta: Atomic forces (eV/Ang):
     1   -0.239722    1.077031   -0.027903
     2    1.097464   -2.063472   -0.085508
     3   -0.403344    1.444634    0.694190
     4   -0.903773    0.583152   -0.290731
     5   -0.648263    0.508719    0.381532
     6    1.640928   -0.817163   -0.395001
     7    0.985415   -1.001415    0.123792
     8    0.949452    0.751152    0.026975
     9    0.155498   -0.485776    0.279355
    10   -0.599145   -0.919364   -0.084987
    11   -1.339585    0.722684    0.062959
    12   -1.858039    1.400490   -0.119107
    13   -2.124578    0.900894    0.387322
    14    1.301750    0.055895    0.077177
    15   -0.877093    1.187422    0.149832
    16    0.220008   -0.545675    0.098428
    17   -0.050507    0.070926    0.396921
    18   -0.183375   -0.071475   -0.418886
    19    0.663955   -1.174347    0.025700
    20    1.176734   -0.067086   -0.035662
    21    0.020903   -0.307382    0.039842
    22   -0.010256    0.001565   -0.173856
    23    0.035981    1.033126    0.041038
    24    1.476351   -0.973843   -0.016607
----------------------------------------
   Tot    0.486759    1.310692    1.136813
----------------------------------------
   Max    2.124578
   Res    0.794147    sqrt( Sum f_i^2 / 3N )
----------------------------------------
   Max    2.124578    constrained

Stress tensor Voigt[x,y,z,yz,xz,xy] (kbar):       -3.76       -2.61       -0.18        0.00        0.02        1.16
(Free)E + p*V (eV/cell)    -2648.1168
Target enthalpy (eV/cell)    -2651.3694

siesta: Stress tensor (static) (eV/Ang**3):
        -0.002131    0.000673    0.000072
         0.000673   -0.001438    0.000057
         0.000071    0.000057    0.000179

siesta: Pressure (static):          1.81090292  kBar

siesta: Stress tensor (total) (eV/Ang**3):
        -0.002345    0.000723    0.000015
         0.000723   -0.001629    0.000002
         0.000015    0.000002   -0.000114

siesta: Pressure (total):          2.18352146  kBar

mulliken: Atomic and Orbital Populations:

mulliken: Spin UP 

Species: c                   
Atom  Qatom  Qorb
               2s      2s      2py     2pz     2px     2py     2pz     2px     
               3Pdxy   3Pdyz   3Pdz2   3Pdxz   3Pdx2-y2
   1  1.703  -0.020   0.396   0.073   0.066   0.204   0.350   0.341   0.252
              0.008   0.005   0.006   0.013   0.008
   2  2.052   0.263   0.241   0.320   0.399   0.212   0.174   0.079   0.252
              0.031   0.020   0.002   0.018   0.040
   4  1.960   0.185   0.276   0.093   0.401   0.302   0.353   0.074   0.186
              0.039   0.007   0.002   0.019   0.024
   5  1.887   0.148   0.296   0.259   0.387   0.045   0.231   0.083   0.380
              0.013   0.017   0.001   0.004   0.023
   6  1.981   0.216   0.265   0.198   0.370   0.240   0.266   0.103   0.240
              0.021   0.020   0.001   0.014   0.026
   7  1.987   0.210   0.266   0.236   0.374   0.195   0.243   0.109   0.271
              0.025   0.016   0.002   0.016   0.023
   8  1.894   0.158   0.293   0.210   0.385   0.101   0.264   0.081   0.338
              0.023   0.014   0.001   0.009   0.016
   9  1.880   0.153   0.295   0.199   0.396   0.098   0.263   0.081   0.336
              0.021   0.013   0.001   0.007   0.018
  10  1.874   0.143   0.301   0.051   0.378   0.237   0.378   0.084   0.240
              0.015   0.004   0.001   0.018   0.025
  11  1.905   0.178   0.283   0.206   0.412   0.131   0.254   0.078   0.306
              0.018   0.013   0.001   0.007   0.017
  12  2.051   0.259   0.241   0.233   0.392   0.286   0.247   0.094   0.183
              0.033   0.024   0.003   0.026   0.031
  15  2.065   0.264   0.237   0.265   0.400   0.263   0.192   0.093   0.239
              0.031   0.030   0.003   0.017   0.029

Species: n                   
Atom  Qatom  Qorb
               2s      2s      2py     2pz     2px     2py     2pz     2px     
               3Pdxy   3Pdyz   3Pdz2   3Pdxz   3Pdx2-y2
   3  2.395   0.304   0.303   0.571   0.448   0.297   0.102   0.081   0.245
              0.011   0.007   0.004   0.010   0.013
  13  2.216   0.124   0.373   0.169   0.558   0.069   0.328   0.153   0.393
              0.013   0.012   0.003   0.005   0.016

Species: h                   
Atom  Qatom  Qorb
               1s      1s      2Ppy    2Ppz    2Ppx    
  14  0.597   0.287   0.214   0.021   0.041   0.035
  16  0.599   0.375   0.173   0.017   0.018   0.016
  17  0.601   0.380   0.167   0.019   0.017   0.018
  18  0.601   0.380   0.168   0.019   0.017   0.018
  19  0.623   0.415   0.160   0.022   0.018   0.008
  20  0.632   0.419   0.156   0.013   0.019   0.025
  21  0.625   0.416   0.154   0.015   0.018   0.021
  22  0.625   0.420   0.150   0.015   0.019   0.021
  23  0.627   0.415   0.156   0.023   0.019   0.013
  24  0.618   0.428   0.137   0.015   0.017   0.020

mulliken: Qtot =       34.000

mulliken: Spin DOWN 

Species: c                   
Atom  Qatom  Qorb
               2s      2s      2py     2pz     2px     2py     2pz     2px     
               3Pdxy   3Pdyz   3Pdz2   3Pdxz   3Pdx2-y2
   1  1.703  -0.020   0.396   0.073   0.066   0.204   0.350   0.341   0.252
              0.008   0.005   0.006   0.013   0.008
   2  2.052   0.263   0.241   0.320   0.399   0.212   0.174   0.079   0.252
              0.031   0.020   0.002   0.018   0.040
   4  1.960   0.185   0.276   0.093   0.401   0.302   0.353   0.074   0.186
              0.039   0.007   0.002   0.019   0.024
   5  1.887   0.148   0.296   0.259   0.387   0.045   0.231   0.083   0.380
              0.013   0.017   0.001   0.004   0.023
   6  1.981   0.216   0.265   0.198   0.370   0.240   0.266   0.103   0.240
              0.021   0.020   0.001   0.014   0.026
   7  1.987   0.210   0.266   0.236   0.374   0.195   0.243   0.109   0.271
              0.025   0.016   0.002   0.016   0.023
   8  1.894   0.158   0.293   0.210   0.385   0.101   0.264   0.081   0.338
              0.023   0.014   0.001   0.009   0.016
   9  1.880   0.153   0.295   0.199   0.396   0.098   0.263   0.081   0.336
              0.021   0.013   0.001   0.007   0.018
  10  1.874   0.143   0.301   0.051   0.378   0.237   0.378   0.084   0.240
              0.015   0.004   0.001   0.018   0.025
  11  1.905   0.178   0.283   0.206   0.412   0.131   0.254   0.078   0.306
              0.018   0.013   0.001   0.007   0.017
  12  2.051   0.259   0.241   0.233   0.392   0.286   0.247   0.094   0.183
              0.033   0.024   0.003   0.026   0.031
  15  2.065   0.264   0.237   0.265   0.400   0.263   0.192   0.093   0.239
              0.031   0.030   0.003   0.017   0.029

Species: n                   
Atom  Qatom  Qorb
               2s      2s      2py     2pz     2px     2py     2pz     2px     
               3Pdxy   3Pdyz   3Pdz2   3Pdxz   3Pdx2-y2
   3  2.395   0.304   0.303   0.571   0.448   0.297   0.102   0.081   0.245
              0.011   0.007   0.004   0.010   0.013
  13  2.216   0.124   0.373   0.169   0.558   0.069   0.328   0.153   0.393
              0.013   0.012   0.003   0.005   0.016

Species: h                   
Atom  Qatom  Qorb
               1s      1s      2Ppy    2Ppz    2Ppx    
  14  0.597   0.287   0.214   0.021   0.041   0.035
  16  0.599   0.375   0.173   0.017   0.018   0.016
  17  0.601   0.380   0.167   0.019   0.017   0.018
  18  0.601   0.380   0.168   0.019   0.017   0.018
  19  0.623   0.415   0.160   0.022   0.018   0.008
  20  0.632   0.419   0.156   0.013   0.019   0.025
  21  0.625   0.416   0.154   0.015   0.018   0.021
  22  0.625   0.420   0.150   0.015   0.019   0.021
  23  0.627   0.415   0.156   0.023   0.019   0.013
  24  0.618   0.428   0.137   0.015   0.017   0.020

mulliken: Qtot =       34.000

siesta: Temp_ion =     243.742 K

                     ====================================
                        Begin MD step =      4
                     ====================================

outcoor: Atomic coordinates (Ang):                          
    0.90747153   -0.14090257   -0.01366576   1       1  c
    2.38250391   -0.05051552   -0.02086811   1       2  c
    3.08005192   -1.22710379   -0.03025162   2       3  n
    4.41759176   -1.19330037   -0.00237384   1       4  c
    5.18784515   -0.04444758   -0.03907641   1       5  c
    4.50524713    1.17306774    0.01976723   1       6  c
    4.93251593    2.54969365   -0.01759193   1       7  c
    6.16085955    3.17359536   -0.03854038   1       8  c
    6.23149542    4.57385719   -0.03609774   1       9  c
    5.05553046    5.34329030   -0.01164136   1      10  c
    3.79888212    4.72461037   -0.01797458   1      11  c
    3.77728424    3.30778983   -0.00569210   1      12  c
    2.69328918    2.45509821   -0.01914276   2      13  n
    1.65591962    2.67330621   -0.07887648   3      14  h
    3.11260370    1.13542757   -0.01513709   1      15  c
    0.51432905   -1.17736160   -0.03447299   3      16  h
    0.48224909    0.36249742   -0.94714717   3      17  h
    0.53659395    0.37681155    0.93568920   3      18  h
    4.87920715   -2.17666606   -0.03314431   3      19  h
    6.27479591   -0.08872851   -0.01824157   3      20  h
    7.13413973    2.62993746   -0.05971142   3      21  h
    7.22717887    5.07402109    0.06712715   3      22  h
    5.11966190    6.42977043   -0.02158204   3      23  h
    2.79389378    5.36097579   -0.01186967   3      24  h

outcell: Unit cell vectors (Ang):
       14.691060    0.000000    0.000000
        0.000000   16.609250    0.000000
        0.000000    0.000000    9.781030

outcell: Cell vector modules (Ang)   :   14.691060   16.609250    9.781030
outcell: Cell angles (23,13,12) (deg):     90.0000     90.0000     90.0000
outcell: Cell volume (Ang**3)        :   2386.6446
<dSpData1D:S at geom step 4
  <sparsity:sparsity for geom step 4
    nrows_g=232 nrows=232 sparsity=.8617 nnzs=46380, refcount: 7>
  <dData1D:(new from dSpData1D) n=46380, refcount: 1>
refcount: 1>
new_DM -- step:     4
Re-using DM from previous geometries...
Number of DMs in history: 1
 DM extrapolation coefficients: 
1   1.00000
New DM after history re-use:
<dSpData2D:SpM extrapolated using coords
  <sparsity:sparsity for geom step 4
    nrows_g=232 nrows=232 sparsity=.8617 nnzs=46380, refcount: 9>
  <dData2D:(temp array for extrapolation) n=46380 m=2, refcount: 1>
refcount: 1>
     spin moment: S , {S} =   -0.00000       0.0       0.0  -0.00000
Note: For starting DM, Qtot, Tr[D*S] =         68.00000000         67.91544020
No. of atoms with KB's overlaping orbs in proc 0. Max # of overlaps:      24     153

InitMesh: MESH = 90 x 100 x 60 = 540000
InitMesh: Mesh cutoff (required, used) =   100.000   100.185 Ry
New grid distribution [1]: sub = 2

        iscf     Eharris(eV)        E_KS(eV)     FreeEng(eV)     dDmax    Ef(eV) dHmax(eV)
   scf:    1    -2651.414186    -2651.237088    -2651.237088  0.006693 -2.362461  0.697375
     spin moment: S , {S} =    0.00000       0.0       0.0   0.00000
   scf:    2    -2650.664166    -2651.081842    -2651.081842  0.017683 -2.645581  1.572322
     spin moment: S , {S} =    0.00000       0.0       0.0   0.00000
   scf:    3    -2651.321020    -2651.269087    -2651.269087  0.013011 -2.454790  0.037257
     spin moment: S , {S} =   -0.00000       0.0       0.0  -0.00000
   scf:    4    -2651.269307    -2651.269222    -2651.269222  0.000319 -2.463348  0.007931
     spin moment: S , {S} =    0.00000       0.0       0.0   0.00000
   scf:    5    -2651.269240    -2651.269232    -2651.269232  0.000073 -2.464770  0.004027
     spin moment: S , {S} =    0.00000       0.0       0.0   0.00000
   scf:    6    -2651.269238    -2651.269235    -2651.269235  0.000049 -2.465420  0.001586
     spin moment: S , {S} =   -0.00000       0.0       0.0  -0.00000
   scf:    7    -2651.269236    -2651.269236    -2651.269236  0.000024 -2.465724  0.000552
     spin moment: S , {S} =    0.00000       0.0       0.0   0.00000

SCF Convergence by DM+H criterion
max |DM_out - DM_in|         :     0.0000235180
max |H_out - H_in|      (eV) :     0.0005519302
SCF cycle converged after 7 iterations

Using DM_out to compute the final energy and forces
No. of atoms with KB's overlaping orbs in proc 0. Max # of overlaps:      24     153

siesta: E_KS(eV) =            -2651.2692
     spin moment: S , {S} =    0.00000       0.0       0.0   0.00000

siesta: Atomic forces (eV/Ang):
     1   -0.767501    1.156149   -0.052055
     2    1.151602   -2.088761   -0.127165
     3   -0.543028    1.436690    0.805173
     4   -0.523322    0.011030   -0.444944
     5   -0.011758    0.428008    0.552102
     6    1.557334   -0.744664   -0.593321
     7    0.455810   -1.426889    0.180469
     8    1.785981    0.845578    0.018097
     9    0.296818   -0.159758    0.425217
    10   -0.478573   -0.623101   -0.135359
    11   -1.622481    0.753963    0.083914
    12   -2.061342    1.746643   -0.189210
    13   -2.341527    0.664538    0.366562
    14    1.589075    0.171607    0.131915
    15   -0.718022    1.343470    0.214454
    16    0.377884   -0.231003    0.143653
    17    0.088464   -0.058928    0.749280
    18   -0.118036   -0.256633   -0.779666
    19    0.478646   -0.698397    0.052101
    20    0.649407   -0.058249   -0.061138
    21   -0.369655   -0.179830    0.065026
    22   -0.378127   -0.170666   -0.285392
    23    0.020750    0.627177    0.061719
    24    1.859126   -1.212453   -0.023332
----------------------------------------
   Tot    0.377525    1.275521    1.158101
----------------------------------------
   Max    2.341527
   Res    0.849527    sqrt( Sum f_i^2 / 3N )
----------------------------------------
   Max    2.341527    constrained

Stress tensor Voigt[x,y,z,yz,xz,xy] (kbar):       -2.47       -1.46        0.37        0.07        0.14        0.95
(Free)E + p*V (eV/cell)    -2649.4997
Target enthalpy (eV/cell)    -2651.2692

siesta: Stress tensor (static) (eV/Ang**3):
        -0.001381    0.000558    0.000138
         0.000558   -0.000743    0.000098
         0.000137    0.000098    0.000503

siesta: Pressure (static):          0.86595881  kBar

siesta: Stress tensor (total) (eV/Ang**3):
        -0.001544    0.000591    0.000089
         0.000591   -0.000909    0.000043
         0.000089    0.000043    0.000229

siesta: Pressure (total):          1.18791619  kBar

mulliken: Atomic and Orbital Populations:

mulliken: Spin UP 

Species: c                   
Atom  Qatom  Qorb
               2s      2s      2py     2pz     2px     2py     2pz     2px     
               3Pdxy   3Pdyz   3Pdz2   3Pdxz   3Pdx2-y2
   1  1.706  -0.009   0.391   0.079   0.070   0.205   0.344   0.334   0.252
              0.009   0.005   0.006   0.014   0.008
   2  2.052   0.262   0.241   0.320   0.399   0.211   0.175   0.080   0.253
              0.031   0.020   0.002   0.018   0.040
   4  1.963   0.190   0.273   0.096   0.401   0.304   0.348   0.074   0.185
              0.040   0.007   0.002   0.020   0.024
   5  1.890   0.153   0.294   0.259   0.387   0.049   0.231   0.082   0.375
              0.013   0.017   0.001   0.004   0.023
   6  1.981   0.216   0.265   0.198   0.370   0.240   0.266   0.103   0.240
              0.021   0.019   0.001   0.014   0.026
   7  1.988   0.209   0.266   0.237   0.372   0.196   0.243   0.111   0.272
              0.025   0.016   0.002   0.017   0.023
   8  1.896   0.161   0.291   0.214   0.384   0.100   0.261   0.082   0.338
              0.023   0.014   0.001   0.009   0.017
   9  1.883   0.157   0.293   0.202   0.397   0.102   0.260   0.081   0.331
              0.021   0.013   0.001   0.007   0.018
  10  1.876   0.147   0.299   0.054   0.379   0.238   0.373   0.083   0.239
              0.015   0.004   0.001   0.018   0.025
  11  1.908   0.184   0.281   0.210   0.414   0.136   0.250   0.077   0.300
              0.018   0.013   0.001   0.007   0.018
  12  2.051   0.260   0.241   0.234   0.393   0.286   0.246   0.094   0.182
              0.033   0.023   0.003   0.026   0.031
  15  2.063   0.264   0.237   0.264   0.401   0.263   0.193   0.093   0.239
              0.031   0.030   0.003   0.017   0.029

Species: n                   
Atom  Qatom  Qorb
               2s      2s      2py     2pz     2px     2py     2pz     2px     
               3Pdxy   3Pdyz   3Pdz2   3Pdxz   3Pdx2-y2
   3  2.394   0.302   0.304   0.571   0.447   0.295   0.103   0.082   0.247
              0.011   0.007   0.004   0.010   0.013
  13  2.219   0.128   0.371   0.175   0.561   0.071   0.324   0.151   0.391
              0.013   0.012   0.003   0.005   0.016

Species: h                   
Atom  Qatom  Qorb
               1s      1s      2Ppy    2Ppz    2Ppx    
  14  0.595   0.289   0.211   0.020   0.040   0.035
  16  0.598   0.376   0.171   0.017   0.018   0.016
  17  0.599   0.382   0.165   0.018   0.017   0.017
  18  0.600   0.381   0.165   0.019   0.017   0.018
  19  0.621   0.416   0.158   0.022   0.017   0.008
  20  0.630   0.419   0.154   0.013   0.019   0.025
  21  0.623   0.417   0.152   0.015   0.018   0.021
  22  0.623   0.420   0.149   0.014   0.019   0.021
  23  0.625   0.415   0.155   0.023   0.019   0.013
  24  0.615   0.430   0.133   0.015   0.017   0.020

mulliken: Qtot =       34.000

mulliken: Spin DOWN 

Species: c                   
Atom  Qatom  Qorb
               2s      2s      2py     2pz     2px     2py     2pz     2px     
               3Pdxy   3Pdyz   3Pdz2   3Pdxz   3Pdx2-y2
   1  1.706  -0.009   0.391   0.079   0.070   0.205   0.344   0.334   0.252
              0.009   0.005   0.006   0.014   0.008
   2  2.052   0.262   0.241   0.320   0.399   0.211   0.175   0.080   0.253
              0.031   0.020   0.002   0.018   0.040
   4  1.963   0.190   0.273   0.096   0.401   0.304   0.348   0.074   0.185
              0.040   0.007   0.002   0.020   0.024
   5  1.890   0.153   0.294   0.259   0.387   0.049   0.231   0.082   0.375
              0.013   0.017   0.001   0.004   0.023
   6  1.981   0.216   0.265   0.198   0.370   0.240   0.266   0.103   0.240
              0.021   0.019   0.001   0.014   0.026
   7  1.988   0.209   0.266   0.237   0.372   0.196   0.243   0.111   0.272
              0.025   0.016   0.002   0.017   0.023
   8  1.896   0.161   0.291   0.214   0.384   0.100   0.261   0.082   0.338
              0.023   0.014   0.001   0.009   0.017
   9  1.883   0.157   0.293   0.202   0.397   0.102   0.260   0.081   0.331
              0.021   0.013   0.001   0.007   0.018
  10  1.876   0.147   0.299   0.054   0.379   0.238   0.373   0.083   0.239
              0.015   0.004   0.001   0.018   0.025
  11  1.908   0.184   0.281   0.210   0.414   0.136   0.250   0.077   0.300
              0.018   0.013   0.001   0.007   0.018
  12  2.051   0.260   0.241   0.234   0.393   0.286   0.246   0.094   0.182
              0.033   0.023   0.003   0.026   0.031
  15  2.063   0.264   0.237   0.264   0.401   0.263   0.193   0.093   0.239
              0.031   0.030   0.003   0.017   0.029

Species: n                   
Atom  Qatom  Qorb
               2s      2s      2py     2pz     2px     2py     2pz     2px     
               3Pdxy   3Pdyz   3Pdz2   3Pdxz   3Pdx2-y2
   3  2.394   0.302   0.304   0.571   0.447   0.295   0.103   0.082   0.247
              0.011   0.007   0.004   0.010   0.013
  13  2.219   0.128   0.371   0.175   0.561   0.071   0.324   0.151   0.391
              0.013   0.012   0.003   0.005   0.016

Species: h                   
Atom  Qatom  Qorb
               1s      1s      2Ppy    2Ppz    2Ppx    
  14  0.595   0.289   0.211   0.020   0.040   0.035
  16  0.598   0.376   0.171   0.017   0.018   0.016
  17  0.599   0.382   0.165   0.018   0.017   0.017
  18  0.600   0.381   0.165   0.019   0.017   0.018
  19  0.621   0.416   0.158   0.022   0.017   0.008
  20  0.630   0.419   0.154   0.013   0.019   0.025
  21  0.623   0.417   0.152   0.015   0.018   0.021
  22  0.623   0.420   0.149   0.014   0.019   0.021
  23  0.625   0.415   0.155   0.023   0.019   0.013
  24  0.615   0.430   0.133   0.015   0.017   0.020

mulliken: Qtot =       34.000

siesta: Temp_ion =     210.850 K

                     ====================================
                        Begin MD step =      5
                     ====================================

outcoor: Atomic coordinates (Ang):                          
    0.91272056   -0.14839943   -0.01220125   1       1  c
    2.38382328   -0.05401355   -0.02188783   1       2  c
    3.08150522   -1.22681612   -0.03318022   2       3  n
    4.41409875   -1.18862111    0.00250543   1       4  c
    5.18276696   -0.03876707   -0.04523206   1       5  c
    4.50470210    1.17526139    0.03177481   1       6  c
    4.93687101    2.55278855   -0.01719751   1       7  c
    6.15854017    3.17024686   -0.04530895   1       8  c
    6.23551259    4.56908199   -0.04157867   1       9  c
    5.05768666    5.34455391   -0.00966607   1      10  c
    3.79803347    4.72937835   -0.01771442   1      11  c
    3.77748963    3.30808453   -0.00176396   1      12  c
    2.68833171    2.45806137   -0.01896065   2      13  n
    1.65522649    2.65328102   -0.09731194   3      14  h
    3.10855186    1.13597834   -0.01380886   1      15  c
    0.51065854   -1.19412371   -0.03776103   3      16  h
    0.47869220    0.35625108   -0.95058933   3      17  h
    0.54813839    0.37232157    0.94700125   3      18  h
    4.88581326   -2.19098665   -0.03719676   3      19  h
    6.28975844   -0.08220716   -0.01896493   3      20  h
    7.14518948    2.63092560   -0.07263398   3      21  h
    7.23927656    5.06725599    0.09149876   3      22  h
    5.12568644    6.44810072   -0.02186249   3      23  h
    2.79330180    5.36188219   -0.01018303   3      24  h

outcell: Unit cell vectors (Ang):
       14.691060    0.000000    0.000000
        0.000000   16.609250    0.000000
        0.000000    0.000000    9.781030

outcell: Cell vector modules (Ang)   :   14.691060   16.609250    9.781030
outcell: Cell angles (23,13,12) (deg):     90.0000     90.0000     90.0000
outcell: Cell volume (Ang**3)        :   2386.6446
<dSpData1D:S at geom step 5
[...]
   37.0178   37.7932   38.1838   38.7595   39.2345   39.6425   40.0616   40.4183   40.9301   41.5227
   42.3912   42.5176   43.2152   43.5750   43.9642   44.4491   44.8323   45.1087   45.5352   45.9093
   46.4054   46.6295   47.1930   47.6404   48.2244   49.6749   49.9971   50.7918   51.0301   51.8197
   52.0419   52.6673   53.1429   54.6425   54.7589   55.5982   56.2032   56.2843   56.7460   57.4065
   58.6482   58.8403   59.1644   60.9018   61.3947   61.6693   62.5092   63.4708   63.6073   65.2060
   65.5148   65.7095   67.6969   68.5427   69.3661   70.9532   71.5838   72.6238   73.2223   73.9045
   75.4275   76.4211   76.9713   78.4541   80.0731   80.5518   81.8487   82.8174   85.0203   86.0145
   86.7977   87.8536   89.5178   94.4659   96.0992   97.7192  102.3454  104.3336  105.8764  106.9877
  111.3982  124.2951
  74  2  -24.2512  -22.9003  -20.7263  -19.5879  -19.0093  -18.0397  -17.7112  -17.1439  -15.6782  -15.0361
         -14.7015  -13.5545  -13.2751  -12.2563  -11.9460  -11.5485  -10.8835  -10.7852  -10.4480  -10.2870
  -10.1063   -9.9410   -9.5015   -8.9270   -8.7629   -8.5175   -8.1568   -8.0448   -7.6974   -6.9490
   -6.0133   -5.5187   -5.0362   -4.8881   -1.7724   -0.8383   -0.4191    0.0877    1.5180    1.6750
    2.4576    2.6662    2.9888    3.1782    3.4511    3.4850    3.7797    4.0998    4.4415    4.6271
    4.7766    5.0387    5.5261    5.7983    6.0777    6.6488    6.9274    7.4607    7.6683    8.0646
    8.1913    8.5575    8.5752    9.0439    9.1647    9.3563    9.5668    9.8839   10.2133   10.3510
   10.5329   10.5624   10.8597   11.1245   11.2946   11.5811   11.7807   11.9732   12.0145   12.1517
   12.3968   12.6774   12.9562   13.1273   13.2232   13.3994   13.7676   14.0365   14.3188   14.6311
   14.7883   15.3922   15.9624   16.1187   16.8461   17.0652   17.4038   17.5308   17.7146   17.9684
   18.1121   18.3893   18.5057   18.6518   18.7566   18.9377   19.1569   19.3363   19.4861   19.5726
   19.8934   20.1282   20.2617   20.3757   20.4971   21.0266   21.2910   21.5145   21.7278   22.2142
   22.2912   22.6350   22.8734   23.1464   23.4186   23.6506   24.0641   24.4149   24.8233   25.3586
   25.5856   26.1996   27.2245   27.6116   27.8062   28.0698   28.6245   29.8383   30.1231   30.9382
   31.8003   32.4931   33.0986   33.5328   34.0102   34.2721   34.4623   35.1225   36.0300   36.5715
   37.0178   37.7932   38.1838   38.7595   39.2345   39.6425   40.0616   40.4183   40.9301   41.5227
   42.3912   42.5176   43.2152   43.5750   43.9642   44.4491   44.8323   45.1087   45.5352   45.9093
   46.4054   46.6295   47.1930   47.6404   48.2244   49.6749   49.9971   50.7918   51.0301   51.8197
   52.0419   52.6673   53.1429   54.6425   54.7589   55.5982   56.2032   56.2843   56.7460   57.4065
   58.6482   58.8403   59.1644   60.9018   61.3947   61.6693   62.5092   63.4708   63.6073   65.2060
   65.5148   65.7095   67.6969   68.5427   69.3661   70.9532   71.5838   72.6238   73.2223   73.9045
   75.4275   76.4211   76.9713   78.4541   80.0731   80.5518   81.8487   82.8174   85.0203   86.0145
   86.7977   87.8536   89.5178   94.4659   96.0992   97.7192  102.3454  104.3336  105.8764  106.9877
  111.3982  124.2951
  75  2  -24.2512  -22.9003  -20.7263  -19.5879  -19.0093  -18.0397  -17.7112  -17.1439  -15.6782  -15.0361
         -14.7015  -13.5545  -13.2751  -12.2563  -11.9460  -11.5485  -10.8835  -10.7852  -10.4480  -10.2870
  -10.1063   -9.9410   -9.5015   -8.9270   -8.7629   -8.5175   -8.1568   -8.0448   -7.6974   -6.9490
   -6.0133   -5.5187   -5.0362   -4.8881   -1.7724   -0.8383   -0.4191    0.0877    1.5180    1.6750
    2.4576    2.6662    2.9888    3.1782    3.4511    3.4850    3.7797    4.0998    4.4415    4.6271
    4.7766    5.0387    5.5261    5.7983    6.0777    6.6488    6.9274    7.4607    7.6683    8.0646
    8.1913    8.5575    8.5752    9.0439    9.1647    9.3563    9.5668    9.8839   10.2133   10.3510
   10.5329   10.5624   10.8597   11.1245   11.2946   11.5811   11.7807   11.9732   12.0145   12.1517
   12.3968   12.6774   12.9562   13.1273   13.2232   13.3994   13.7676   14.0365   14.3188   14.6311
   14.7883   15.3922   15.9624   16.1187   16.8461   17.0652   17.4038   17.5308   17.7146   17.9684
   18.1121   18.3893   18.5057   18.6518   18.7566   18.9377   19.1569   19.3363   19.4861   19.5726
   19.8934   20.1282   20.2617   20.3757   20.4971   21.0266   21.2910   21.5145   21.7278   22.2142
   22.2912   22.6350   22.8734   23.1464   23.4186   23.6506   24.0641   24.4149   24.8233   25.3586
   25.5856   26.1996   27.2245   27.6116   27.8062   28.0698   28.6245   29.8383   30.1231   30.9382
   31.8003   32.4931   33.0986   33.5328   34.0102   34.2721   34.4623   35.1225   36.0300   36.5715
   37.0178   37.7932   38.1838   38.7595   39.2345   39.6425   40.0616   40.4183   40.9301   41.5227
   42.3912   42.5176   43.2152   43.5750   43.9642   44.4491   44.8323   45.1087   45.5352   45.9093
   46.4054   46.6295   47.1930   47.6404   48.2244   49.6749   49.9971   50.7918   51.0301   51.8197
   52.0419   52.6673   53.1429   54.6425   54.7589   55.5982   56.2032   56.2843   56.7460   57.4065
   58.6482   58.8403   59.1644   60.9018   61.3947   61.6693   62.5092   63.4708   63.6073   65.2060
   65.5148   65.7095   67.6969   68.5427   69.3661   70.9532   71.5838   72.6238   73.2223   73.9045
   75.4275   76.4211   76.9713   78.4541   80.0731   80.5518   81.8487   82.8174   85.0203   86.0145
   86.7977   87.8536   89.5178   94.4659   96.0992   97.7192  102.3454  104.3336  105.8764  106.9877
  111.3982  124.2951
  76  2  -24.2512  -22.9003  -20.7263  -19.5879  -19.0093  -18.0397  -17.7112  -17.1439  -15.6782  -15.0361
         -14.7015  -13.5545  -13.2751  -12.2563  -11.9460  -11.5485  -10.8835  -10.7852  -10.4480  -10.2870
  -10.1063   -9.9410   -9.5015   -8.9270   -8.7629   -8.5175   -8.1568   -8.0448   -7.6974   -6.9490
   -6.0133   -5.5187   -5.0362   -4.8881   -1.7724   -0.8383   -0.4191    0.0877    1.5180    1.6750
    2.4576    2.6662    2.9888    3.1782    3.4511    3.4850    3.7797    4.0998    4.4415    4.6271
    4.7766    5.0387    5.5261    5.7983    6.0777    6.6488    6.9274    7.4607    7.6683    8.0646
    8.1913    8.5575    8.5752    9.0439    9.1647    9.3563    9.5668    9.8839   10.2133   10.3510
   10.5329   10.5624   10.8597   11.1245   11.2946   11.5811   11.7807   11.9732   12.0145   12.1517
   12.3968   12.6774   12.9562   13.1273   13.2232   13.3994   13.7676   14.0365   14.3188   14.6311
   14.7883   15.3922   15.9624   16.1187   16.8461   17.0652   17.4038   17.5308   17.7146   17.9684
   18.1121   18.3893   18.5057   18.6518   18.7566   18.9377   19.1569   19.3363   19.4861   19.5726
   19.8934   20.1282   20.2617   20.3757   20.4971   21.0266   21.2910   21.5145   21.7278   22.2142
   22.2912   22.6350   22.8734   23.1464   23.4186   23.6506   24.0641   24.4149   24.8233   25.3586
   25.5856   26.1996   27.2245   27.6116   27.8062   28.0698   28.6245   29.8383   30.1231   30.9382
   31.8003   32.4931   33.0986   33.5328   34.0102   34.2721   34.4623   35.1225   36.0300   36.5715
   37.0178   37.7932   38.1838   38.7595   39.2345   39.6425   40.0616   40.4183   40.9301   41.5227
   42.3912   42.5176   43.2152   43.5750   43.9642   44.4491   44.8323   45.1087   45.5352   45.9093
   46.4054   46.6295   47.1930   47.6404   48.2244   49.6749   49.9971   50.7918   51.0301   51.8197
   52.0419   52.6673   53.1429   54.6425   54.7589   55.5982   56.2032   56.2843   56.7460   57.4065
   58.6482   58.8403   59.1644   60.9018   61.3947   61.6693   62.5092   63.4708   63.6073   65.2060
   65.5148   65.7095   67.6969   68.5427   69.3661   70.9532   71.5838   72.6238   73.2223   73.9045
   75.4275   76.4211   76.9713   78.4541   80.0731   80.5518   81.8487   82.8174   85.0203   86.0145
   86.7977   87.8536   89.5178   94.4659   96.0992   97.7192  102.3454  104.3336  105.8764  106.9877
  111.3982  124.2951

siesta: Eigenvalues (eV):
  ik is       eps
   1  1  -24.2512  -22.9003  -20.7263  -19.5879  -19.0093  -18.0397  -17.7112  -17.1439  -15.6782  -15.0361
         -14.7015  -13.5545  -13.2751  -12.2563  -11.9460  -11.5485  -10.8835  -10.7852  -10.4480  -10.2870
  -10.1063   -9.9410   -9.5015   -8.9270   -8.7629   -8.5175   -8.1568   -8.0448   -7.6974   -6.9490
   -6.0133   -5.5187   -5.0362   -4.8881   -1.7724   -0.8383   -0.4191    0.0877    1.5180    1.6750
    2.4576    2.6662    2.9888    3.1782    3.4511    3.4850    3.7797    4.0998    4.4415    4.6271
    4.7766    5.0387    5.5261    5.7983    6.0777    6.6488    6.9274    7.4607    7.6683    8.0646
    8.1913    8.5575    8.5752    9.0439    9.1647    9.3563    9.5668    9.8839   10.2133   10.3510
   10.5329   10.5624   10.8597   11.1245   11.2946   11.5811   11.7807   11.9732   12.0145   12.1517
   12.3968   12.6774   12.9562   13.1273   13.2232   13.3994   13.7676   14.0365   14.3188   14.6311
   14.7883   15.3922   15.9624   16.1187   16.8461   17.0652   17.4038   17.5308   17.7146   17.9684
   18.1121   18.3893   18.5057   18.6518   18.7566   18.9377   19.1569   19.3363   19.4861   19.5726
   19.8934   20.1282   20.2617   20.3757   20.4971   21.0266   21.2910   21.5145   21.7278   22.2142
   22.2912   22.6350   22.8734   23.1464   23.4186   23.6506   24.0641   24.4149   24.8233   25.3586
   25.5856   26.1996   27.2245   27.6116   27.8062   28.0698   28.6245   29.8383   30.1231   30.9382
   31.8003   32.4931   33.0986   33.5328   34.0102   34.2721   34.4623   35.1225   36.0300   36.5715
   37.0178   37.7932   38.1838   38.7595   39.2345   39.6425   40.0616   40.4183   40.9301   41.5227
   42.3912   42.5176   43.2152   43.5750   43.9642   44.4491   44.8323   45.1087   45.5352   45.9093
   46.4054   46.6295   47.1930   47.6404   48.2244   49.6749   49.9971   50.7918   51.0301   51.8197
   52.0419   52.6673   53.1429   54.6425   54.7589   55.5982   56.2032   56.2843   56.7460   57.4065
   58.6482   58.8403   59.1644   60.9018   61.3947   61.6693   62.5092   63.4708   63.6073   65.2060
   65.5148   65.7095   67.6969   68.5427   69.3661   70.9532   71.5838   72.6238   73.2223   73.9045
   75.4275   76.4211   76.9713   78.4541   80.0731   80.5518   81.8487   82.8174   85.0203   86.0145
   86.7977   87.8536   89.5178   94.4659   96.0992   97.7192  102.3454  104.3336  105.8764  106.9877
  111.3982  124.2951
   1  2  -24.2512  -22.9003  -20.7263  -19.5879  -19.0093  -18.0397  -17.7112  -17.1439  -15.6782  -15.0361
         -14.7015  -13.5545  -13.2751  -12.2563  -11.9460  -11.5485  -10.8835  -10.7852  -10.4480  -10.2870
  -10.1063   -9.9410   -9.5015   -8.9270   -8.7629   -8.5175   -8.1568   -8.0448   -7.6974   -6.9490
   -6.0133   -5.5187   -5.0362   -4.8881   -1.7724   -0.8383   -0.4191    0.0877    1.5180    1.6750
    2.4576    2.6662    2.9888    3.1782    3.4511    3.4850    3.7797    4.0998    4.4415    4.6271
    4.7766    5.0387    5.5261    5.7983    6.0777    6.6488    6.9274    7.4607    7.6683    8.0646
    8.1913    8.5575    8.5752    9.0439    9.1647    9.3563    9.5668    9.8839   10.2133   10.3510
   10.5329   10.5624   10.8597   11.1245   11.2946   11.5811   11.7807   11.9732   12.0145   12.1517
   12.3968   12.6774   12.9562   13.1273   13.2232   13.3994   13.7676   14.0365   14.3188   14.6311
   14.7883   15.3922   15.9624   16.1187   16.8461   17.0652   17.4038   17.5308   17.7146   17.9684
   18.1121   18.3893   18.5057   18.6518   18.7566   18.9377   19.1569   19.3363   19.4861   19.5726
   19.8934   20.1282   20.2617   20.3757   20.4971   21.0266   21.2910   21.5145   21.7278   22.2142
   22.2912   22.6350   22.8734   23.1464   23.4186   23.6506   24.0641   24.4149   24.8233   25.3586
   25.5856   26.1996   27.2245   27.6116   27.8062   28.0698   28.6245   29.8383   30.1231   30.9382
   31.8003   32.4931   33.0986   33.5328   34.0102   34.2721   34.4623   35.1225   36.0300   36.5715
   37.0178   37.7932   38.1838   38.7595   39.2345   39.6425   40.0616   40.4183   40.9301   41.5227
   42.3912   42.5176   43.2152   43.5750   43.9642   44.4491   44.8323   45.1087   45.5352   45.9093
   46.4054   46.6295   47.1930   47.6404   48.2244   49.6749   49.9971   50.7918   51.0301   51.8197
   52.0419   52.6673   53.1429   54.6425   54.7589   55.5982   56.2032   56.2843   56.7460   57.4065
   58.6482   58.8403   59.1644   60.9018   61.3947   61.6693   62.5092   63.4708   63.6073   65.2060
   65.5148   65.7095   67.6969   68.5427   69.3661   70.9532   71.5838   72.6238   73.2223   73.9045
   75.4275   76.4211   76.9713   78.4541   80.0731   80.5518   81.8487   82.8174   85.0203   86.0145
   86.7977   87.8536   89.5178   94.4659   96.0992   97.7192  102.3454  104.3336  105.8764  106.9877
  111.3982  124.2951
siesta: Fermi energy =      -3.459511 eV

siesta: PDOS info
siesta: E1 -- E2, sigma [eV], nhist:  -10.000 --   10.000    0.200 500

siesta: Program's energy decomposition (eV):
siesta: Ebs     =      -835.670456
siesta: Eions   =      4087.300434
siesta: Ena     =       832.092703
siesta: Ekin    =      1821.670225
siesta: Enl     =      -260.962644
siesta: Eso     =         0.000000
siesta: Edftu   =         0.000000
siesta: DEna    =       -50.998751
siesta: DUscf   =         6.143438
siesta: DUext   =         0.000000
siesta: Exc     =      -911.383115
siesta: eta*DQ  =         0.000000
siesta: Emadel  =         0.000000
siesta: Emeta   =         0.000000
siesta: Emolmec =         0.000000
siesta: Ekinion =         1.234451
siesta: Eharris =     -2649.504128
siesta: Etot    =     -2649.504128
siesta: FreeEng =     -2649.504128

siesta: Final energy (eV):
siesta:  Band Struct. =    -835.670456
siesta:       Kinetic =    1821.670225
siesta:       Hartree =    6450.692168
siesta:       Edftu   =       0.000000
siesta:       Eso     =       0.000000
siesta:    Ext. field =       0.000000
siesta:   Exch.-corr. =    -911.383115
siesta:  Ion-electron =  -14505.964515
siesta:       Ion-ion =    4494.246658
siesta:       Ekinion =       1.234451
siesta:         Total =   -2649.504128
siesta:         Fermi =      -3.459511

siesta: Atomic forces (eV/Ang):
siesta:      1    0.676456    0.488306    0.296472
siesta:      2    0.357491   -0.132279   -0.229185
siesta:      3   -0.771944    0.356592   -1.358878
siesta:      4    0.979487   -0.405187    1.144170
siesta:      5   -2.159514    1.605426   -1.018188
siesta:      6    0.709734   -0.000061    0.120675
siesta:      7   -0.218909   -1.040297   -0.447078
siesta:      8   -0.067793    0.756291    1.053054
siesta:      9    1.965088   -1.424240   -1.067159
siesta:     10   -1.397840    0.196009    1.425966
siesta:     11   -2.443037    1.447851    0.201786
siesta:     12   -0.563971    2.389297   -0.291807
siesta:     13    3.236289   -0.872745   -1.031115
siesta:     14   -0.925312    0.279038    0.122580
siesta:     15    0.256151    0.378895    0.750974
siesta:     16   -0.008136   -0.938939    0.216278
siesta:     17   -0.510522    0.563381   -0.039672
siesta:     18   -0.575502    0.255752   -0.119966
siesta:     19    0.583999   -0.486890   -0.097878
siesta:     20    0.463349   -0.354940    0.187911
siesta:     21   -0.629425    0.361176   -0.169716
siesta:     22   -0.659327   -0.187972    0.021505
siesta:     23    0.043160   -0.551532   -0.287858
siesta:     24    1.828504   -1.166795   -0.453819
siesta: ----------------------------------------
siesta:    Tot    0.168478    1.516136   -1.070949

siesta: Stress tensor (static) (eV/Ang**3):
siesta:     0.001833    0.000390   -0.000129
siesta:     0.000390    0.000282    0.000054
siesta:    -0.000129    0.000054    0.000197

siesta: Cell volume =       2386.644563 Ang**3

siesta: Pressure (static):
siesta:                Solid            Molecule  Units
siesta:          -0.00000839          0.00000344  Ry/Bohr**3
siesta:          -0.00077073          0.00031624  eV/Ang**3
siesta:          -1.23485913          0.50668427  kBar
(Free)E+ p_basis*V_orbitals  =       -2644.333692
(Free)Eharris+ p_basis*V_orbitals  =       -2644.333692
     spin moment: S , {S} =   -0.00000       0.0       0.0  -0.00000

siesta: Electric dipole (a.u.)  =   -0.483229    0.757449   -0.016768
siesta: Electric dipole (Debye) =   -1.228246    1.925246   -0.042620

cite: Please see "siesta.bib" for an exhaustive BiBTeX file.
cite: This calculation has made use of the following articles.
cite: Articles are encouraged to be cited in a published work.
        Primary SIESTA paper
          DOI: www.doi.org/10.1088/0953-8984/14/11/302


timer: Elapsed wall time (sec) =    1707.769
timer: CPU execution times (sec):

Routine            Calls   Time/call    Tot.time        %
siesta                 1    1707.284    1707.284   100.00
Setup                  1       0.258       0.258     0.02
bands                  3       1.463       4.389     0.26
KSV_init               1       0.000       0.000     0.00
IterGeom             250       6.805    1701.194    99.64
state_init           250       0.038       9.386     0.55
hsparse              250       0.003       0.819     0.05
overlap              250       0.026       6.447     0.38
Setup_H0             250       0.826     206.516    12.10
naefs                500       0.000       0.090     0.01
MolMec               500       0.000       0.002     0.00
kinefsm              500       0.022      11.199     0.66
nlefsm               500       0.119      59.416     3.48
DHSCF_Init           250       0.675     168.630     9.88
DHSCF1               250       0.009       2.304     0.13
INITMESH             250       0.000       0.002     0.00
DHSCF2               250       0.665     166.324     9.74
REMESH               250       0.091      22.838     1.34
REORD              13754       0.001      16.321     0.96
PHION                250       0.469     117.347     6.87
COMM_BSC           19510       0.001      19.384     1.14
POISON              2564       0.041     104.415     6.12
fft                 5128       0.015      77.104     4.52
IterSCF             1813       0.618    1121.064    65.66
setup_H             2063       0.459     946.041    55.41
DHSCF               2314       0.547    1266.845    74.20
DHSCF3              2314       0.456    1055.308    61.81
rhoofd              2314       0.158     366.533    21.47
XC                  2314       0.092     213.990    12.53
GXC-CellXC          2314       0.081     188.400    11.04
cellXC              2314       0.081     188.359    11.03
vmat                2313       0.137     316.279    18.53
compute_dm          1813       0.093     168.137     9.85
diagon              1813       0.092     167.050     9.78
r-eigvec            3626       0.035     127.092     7.44
r-buildHS           3626       0.000       1.291     0.08
rdiag               3628       0.035     125.846     7.37
rdiag1              3628       0.001       3.322     0.19
rdiag2              3628       0.003      10.961     0.64
rdiag3              3628       0.021      76.557     4.48
rdiag4              3628       0.010      34.571     2.02
r-buildD            1813       0.022      39.163     2.29
MIXER               1563       0.002       2.505     0.15
PostSCF              250       1.454     363.493    21.29
DHSCF4               250       0.846     211.528    12.39
dfscf                250       0.772     192.967    11.30
overfsm              250       0.019       4.677     0.27
state_analysis       250       0.002       0.398     0.02
siesta_move          250       0.001       0.187     0.01
Analysis               1       5.826       5.826     0.34
c-eigval             152       0.029       4.346     0.25
c-buildHS            152       0.002       0.266     0.02
cdiag                152       0.027       4.079     0.24
cdiag1               152       0.003       0.502     0.03
cdiag2               152       0.011       1.673     0.10
cdiag3               152       0.013       1.901     0.11
pdos                   1       1.074       1.074     0.06
optical                1       0.000       0.000     0.00
  

>> End of run:   5-DEC-2020  20:01:24
Job completed
