Siesta Version  : master-post-4.1-266
Architecture    : unknown
Compiler version: GNU Fortran (Ubuntu 9.3.0-17ubuntu1~20.04) 9.3.0
Compiler flags  : gfortran -O2 -fPIC -ftree-vectorize
PP flags        : -DFC_HAVE_ABORT -DSIESTA__DIAG_2STAGE -DSIESTA__MRRR
Libraries       : libsiestaLAPACK.a libsiestaBLAS.a
Directory       : /home/colinw/siesta/MD_Simulations/laPAH3
SERIAL version

* Running in serial mode
>> Start of run:   6-DEC-2020   9:08:52

                           ***********************       
                           *  WELCOME TO SIESTA  *       
                           ***********************       

reinit: Reading from standard input
reinit: Dumped input in INPUT_TMP.35239
************************** Dump of input data file ****************************
NumberOfAtoms 28
SpinPolarized yes
#FixSpin .true.
#TotalSpin
NumberOfSpecies 3
MD.TypeOfRun  nose
MD.FinalTimeStep 250
MD.LengthTimeStep 1.0  fs
MD.InitialTemperature 300 K
MD.TargetTemperature  300  K
%block ChemicalSpeciesLabel
1  6  c
2  7  n
3  1  h
%endblock ChemicalSpeciesLabel
PAO.BasisSize dzp
 PAO.EnergyShift 0.02 Ry
MeshCutoff          100 Ry
MaxSCFIterations    100
DM.NumberPulay       3
DM.Tolerance         1e-3
WriteDenchar	.true.
%block ProjectedDensityOfStates
-10.0 10.0 0.200 500 eV
%endblock ProjectedDensityOfStates
NetCharge 0.00
%block BandLines
1  1.000  1.000 1.000  L
20 0.00   0.00   0.00  \Gamma
25 2.00   0.000  0.00  X
30 2.00   2.00   2.00  \Gamma
%endblock BandLines
LongOutput .true.
WriteCoorXmol .true.
LatticeConstant 1 Ang
%block LatticeVectors
  17.78962 0.0 0.0
  0.0 15.87448 0.0
  0.0 0.0 10.2092
%endblock LatticeVectors
#UseSaveData .true.
%block kgrid_Monkhorst_Pack
1 0 0 0.0
 0 1 0 0.0
 0 0 1 0.0
%endblock kgrid_Monkhorst_Pack
WriteMDXmol .true.
AtomicCoordinatesFormat Ang
%block AtomicCoordinatesAndAtomicSpecies
0.94354  -0.15264 -0.12244  1
2.44126  -0.10167 -0.10328  1
3.11210  1.11112 -0.09150  1
4.50104  1.12416 0.07153  1
5.18634  2.34909 0.15064  1
6.56377  2.39074 0.41899  1
7.27107  3.58578 0.57828  1
8.58847  3.66309 0.88160  2
9.24174  2.49399 1.02139  1
8.64813  1.25329 0.85845  1
7.28055  1.19277 0.55749  1
6.60153  -0.03323 0.42140  1
5.20161  -0.09436 0.19537  1
4.43892  -1.28235 0.10882  1
5.02692  -2.65626 0.24574  1
3.08553  -1.28357 -0.02263  2
0.50355  0.83835 -0.27111  3
0.58339  -0.54402 0.83500  3
0.59606  -0.80751 -0.92651  3
2.55361  2.03945 -0.16357  3
4.63834  3.28117 0.04402  3
6.77712  4.54874 0.48165  3
10.29317  2.57853 1.28269  3
9.23976  0.35231 0.98614  3
7.17596  -0.94774 0.52622  3
6.10518  -2.69276 0.08125  3
4.57423  -3.32574 -0.49440  3
4.81084  -3.04908 1.24474  3
 %endblock AtomicCoordinatesAndAtomicSpecies
************************** End of input data file *****************************

reinit: -----------------------------------------------------------------------
reinit: System Name: 
reinit: -----------------------------------------------------------------------
reinit: System Label: siesta
reinit: -----------------------------------------------------------------------

initatom: Reading input for the pseudopotentials and atomic orbitals ----------
Species number:   1 Atomic number:    6 Label: c
Species number:   2 Atomic number:    7 Label: n
Species number:   3 Atomic number:    1 Label: h

Ground state valence configuration:   2s02  2p02
Reading pseudopotential information in formatted form from c.psf

Valence configuration for pseudopotential generation:
2s( 2.00) rc: 1.54
2p( 2.00) rc: 1.54
3d( 0.00) rc: 1.54
4f( 0.00) rc: 1.54
Ground state valence configuration:   2s02  2p03
Reading pseudopotential information in formatted form from n.psf

Valence configuration for pseudopotential generation:
2s( 2.00) rc: 1.48
2p( 3.00) rc: 1.48
3d( 0.00) rc: 1.48
4f( 0.00) rc: 1.48
Ground state valence configuration:   1s01
Reading pseudopotential information in formatted form from h.psf

Valence configuration for pseudopotential generation:
1s( 1.00) rc: 1.31
2p( 0.00) rc: 1.31
3d( 0.00) rc: 0.37
4f( 0.00) rc: 1.31
For c, standard SIESTA heuristics set lmxkb to 3
 (one more than the basis l, including polarization orbitals).
Use PS.lmax or PS.KBprojectors blocks to override.
For n, standard SIESTA heuristics set lmxkb to 3
 (one more than the basis l, including polarization orbitals).
Use PS.lmax or PS.KBprojectors blocks to override.
For h, standard SIESTA heuristics set lmxkb to 2
 (one more than the basis l, including polarization orbitals).
Use PS.lmax or PS.KBprojectors blocks to override.

<basis_specs>
===============================================================================
c                    Z=   6    Mass=  12.010        Charge= 0.17977+309
Lmxo=1 Lmxkb= 3    BasisType=split      Semic=F
L=0  Nsemic=0  Cnfigmx=2
          i=1  nzeta=2  polorb=0  (2s)
            splnorm:   0.15000    
               vcte:    0.0000    
               rinn:    0.0000    
               qcoe:    0.0000    
               qyuk:    0.0000    
               qwid:   0.10000E-01
                rcs:    0.0000      0.0000    
            lambdas:    1.0000      1.0000    
L=1  Nsemic=0  Cnfigmx=2
          i=1  nzeta=2  polorb=1  (2p)
            splnorm:   0.15000    
               vcte:    0.0000    
               rinn:    0.0000    
               qcoe:    0.0000    
               qyuk:    0.0000    
               qwid:   0.10000E-01
                rcs:    0.0000      0.0000    
            lambdas:    1.0000      1.0000    
-------------------------------------------------------------------------------
L=0  Nkbl=1  erefs: 0.17977+309
L=1  Nkbl=1  erefs: 0.17977+309
L=2  Nkbl=1  erefs: 0.17977+309
L=3  Nkbl=1  erefs: 0.17977+309
===============================================================================
</basis_specs>

atom: Called for c                     (Z =   6)

read_vps: Pseudopotential generation method:
read_vps: ATM3      Troullier-Martins                       
Valence charge for ps generation:    4.00000

read_vps: Pseudopotential includes a core correction:
read_vps: Pseudo-core for xc-correction

xc_check: Exchange-correlation functional:
xc_check: Ceperley-Alder
xc_check: WARNING: Pseudopotential generated with GGA PBE functional
V l=0 = -2*Zval/r beyond r=  1.5227
V l=1 = -2*Zval/r beyond r=  1.5227
V l=2 = -2*Zval/r beyond r=  1.5227
V l=3 = -2*Zval/r beyond r=  1.5038
All V_l potentials equal beyond r=  1.5227
This should be close to max(r_c) in ps generation
All pots = -2*Zval/r beyond r=  1.5227

VLOCAL1: 99.0% of the norm of Vloc inside     18.722 Ry
VLOCAL1: 99.9% of the norm of Vloc inside     42.668 Ry
atom: Maximum radius for 4*pi*r*r*local-pseudopot. charge    1.83678
atom: Maximum radius for r*vlocal+2*Zval:    1.58088

KBgen: Kleinman-Bylander projectors: 
GHOST: No ghost state for L =  0
   l= 0   rc=  1.704034   el= -0.998584   Ekb=  5.327875   kbcos=  0.314897
GHOST: No ghost state for L =  1
   l= 1   rc=  1.704034   el= -0.383998   Ekb= -3.785479   kbcos= -0.363289
GHOST: No ghost state for L =  2
   l= 2   rc=  1.791422   el=  0.002326   Ekb= -0.971263   kbcos= -0.009325
GHOST: No ghost state for L =  3
   l= 3   rc=  1.859892   el=  0.003420   Ekb= -0.399672   kbcos= -0.001232

KBgen: Total number of  Kleinman-Bylander projectors:   16
atom: -------------------------------------------------------------------------

atom: SANKEY-TYPE ORBITALS:
atom: Selected multiple-zeta basis: split     

SPLIT: Orbitals with angular momentum L= 0

SPLIT: Basis orbitals for state 2s

SPLIT: PAO cut-off radius determined from an
SPLIT: energy shift=  0.020000 Ry

   izeta = 1
                 lambda =    1.000000
                     rc =    4.191849
                 energy =   -0.980459
                kinetic =    0.881507
    potential(screened) =   -1.861966
       potential(ionic) =   -5.449625

   izeta = 2
                 rmatch =    3.431921
              splitnorm =    0.150000
                 energy =   -0.849396
                kinetic =    1.300036
    potential(screened) =   -2.149433
       potential(ionic) =   -5.962781

SPLIT: Orbitals with angular momentum L= 1

SPLIT: Basis orbitals for state 2p

SPLIT: PAO cut-off radius determined from an
SPLIT: energy shift=  0.020000 Ry

   izeta = 1
                 lambda =    1.000000
                     rc =    4.993604
                 energy =   -0.366127
                kinetic =    2.463190
    potential(screened) =   -2.829316
       potential(ionic) =   -6.291180

   izeta = 2
                 rmatch =    3.518811
              splitnorm =    0.150000
                 energy =   -0.204163
                kinetic =    3.723883
    potential(screened) =   -3.928045
       potential(ionic) =   -7.766545

POLgen: Perturbative polarization orbital with L=  2

POLgen: Polarization orbital for state 2p

   izeta = 1
                     rc =    4.993604
                 energy =    1.232619
                kinetic =    2.527283
    potential(screened) =   -1.294664
       potential(ionic) =   -4.203101
atom: Total number of Sankey-type orbitals: 13

atm_pop: Valence configuration (for local Pseudopot. screening):
 2s( 2.00)                                                            
 2p( 2.00)                                                            
Vna: chval, zval:    4.00000   4.00000

Vna:  Cut-off radius for the neutral-atom potential:   4.993604
comcore: Pseudo-core radius Rcore=  1.791422

atom: _________________________________________________________________________

<basis_specs>
===============================================================================
n                    Z=   7    Mass=  14.010        Charge= 0.17977+309
Lmxo=1 Lmxkb= 3    BasisType=split      Semic=F
L=0  Nsemic=0  Cnfigmx=2
          i=1  nzeta=2  polorb=0  (2s)
            splnorm:   0.15000    
               vcte:    0.0000    
               rinn:    0.0000    
               qcoe:    0.0000    
               qyuk:    0.0000    
               qwid:   0.10000E-01
                rcs:    0.0000      0.0000    
            lambdas:    1.0000      1.0000    
L=1  Nsemic=0  Cnfigmx=2
          i=1  nzeta=2  polorb=1  (2p)
            splnorm:   0.15000    
               vcte:    0.0000    
               rinn:    0.0000    
               qcoe:    0.0000    
               qyuk:    0.0000    
               qwid:   0.10000E-01
                rcs:    0.0000      0.0000    
            lambdas:    1.0000      1.0000    
-------------------------------------------------------------------------------
L=0  Nkbl=1  erefs: 0.17977+309
L=1  Nkbl=1  erefs: 0.17977+309
L=2  Nkbl=1  erefs: 0.17977+309
L=3  Nkbl=1  erefs: 0.17977+309
===============================================================================
</basis_specs>

atom: Called for n                     (Z =   7)

read_vps: Pseudopotential generation method:
read_vps: ATM3      Troullier-Martins                       
Valence charge for ps generation:    5.00000

read_vps: Pseudopotential includes a core correction:
read_vps: Pseudo-core for xc-correction

xc_check: Exchange-correlation functional:
xc_check: Ceperley-Alder
xc_check: WARNING: Pseudopotential generated with GGA PBE functional
V l=0 = -2*Zval/r beyond r=  1.4606
V l=1 = -2*Zval/r beyond r=  1.4606
V l=2 = -2*Zval/r beyond r=  1.4606
V l=3 = -2*Zval/r beyond r=  1.4606
All V_l potentials equal beyond r=  1.4606
This should be close to max(r_c) in ps generation
All pots = -2*Zval/r beyond r=  1.4606

VLOCAL1: 99.0% of the norm of Vloc inside     20.347 Ry
VLOCAL1: 99.9% of the norm of Vloc inside     46.372 Ry
atom: Maximum radius for 4*pi*r*r*local-pseudopot. charge    1.76189
atom: Maximum radius for r*vlocal+2*Zval:    1.53550

KBgen: Kleinman-Bylander projectors: 
GHOST: No ghost state for L =  0
   l= 0   rc=  1.634559   el= -1.348537   Ekb=  5.297520   kbcos=  0.333054
GHOST: No ghost state for L =  1
   l= 1   rc=  1.614250   el= -0.512415   Ekb= -5.262296   kbcos= -0.428933
GHOST: No ghost state for L =  2
   l= 2   rc=  1.718383   el=  0.002346   Ekb= -1.271998   kbcos= -0.007619
GHOST: No ghost state for L =  3
   l= 3   rc=  1.761893   el=  0.003449   Ekb= -0.494630   kbcos= -0.001017

KBgen: Total number of  Kleinman-Bylander projectors:   16
atom: -------------------------------------------------------------------------

atom: SANKEY-TYPE ORBITALS:
atom: Selected multiple-zeta basis: split     

SPLIT: Orbitals with angular momentum L= 0

SPLIT: Basis orbitals for state 2s

SPLIT: PAO cut-off radius determined from an
SPLIT: energy shift=  0.020000 Ry

   izeta = 1
                 lambda =    1.000000
                     rc =    3.683980
                 energy =   -1.330014
                kinetic =    1.203086
    potential(screened) =   -2.533100
       potential(ionic) =   -8.093205

   izeta = 2
                 rmatch =    2.905100
              splitnorm =    0.150000
                 energy =   -1.134717
                kinetic =    1.810562
    potential(screened) =   -2.945280
       potential(ionic) =   -8.899916

SPLIT: Orbitals with angular momentum L= 1

SPLIT: Basis orbitals for state 2p

SPLIT: PAO cut-off radius determined from an
SPLIT: energy shift=  0.020000 Ry

   izeta = 1
                 lambda =    1.000000
                     rc =    4.388595
                 energy =   -0.493943
                kinetic =    3.501321
    potential(screened) =   -3.995264
       potential(ionic) =   -9.374806

   izeta = 2
                 rmatch =    2.978652
              splitnorm =    0.150000
                 energy =   -0.289183
                kinetic =    5.180785
    potential(screened) =   -5.469968
       potential(ionic) =  -11.438899

POLgen: Perturbative polarization orbital with L=  2

POLgen: Polarization orbital for state 2p

   izeta = 1
                     rc =    4.388595
                 energy =    1.759924
                kinetic =    3.542120
    potential(screened) =   -1.782196
       potential(ionic) =   -6.226799
atom: Total number of Sankey-type orbitals: 13

atm_pop: Valence configuration (for local Pseudopot. screening):
 2s( 2.00)                                                            
 2p( 3.00)                                                            
Vna: chval, zval:    5.00000   5.00000

Vna:  Cut-off radius for the neutral-atom potential:   4.388595
comcore: Pseudo-core radius Rcore=  1.554824

atom: _________________________________________________________________________

<basis_specs>
===============================================================================
h                    Z=   1    Mass=  1.0100        Charge= 0.17977+309
Lmxo=0 Lmxkb= 2    BasisType=split      Semic=F
L=0  Nsemic=0  Cnfigmx=1
          i=1  nzeta=2  polorb=1  (1s)
            splnorm:   0.15000    
               vcte:    0.0000    
               rinn:    0.0000    
               qcoe:    0.0000    
               qyuk:    0.0000    
               qwid:   0.10000E-01
                rcs:    0.0000      0.0000    
            lambdas:    1.0000      1.0000    
-------------------------------------------------------------------------------
L=0  Nkbl=1  erefs: 0.17977+309
L=1  Nkbl=1  erefs: 0.17977+309
L=2  Nkbl=1  erefs: 0.17977+309
===============================================================================
</basis_specs>

atom: Called for h                     (Z =   1)

read_vps: Pseudopotential generation method:
read_vps: ATM3      Troullier-Martins                       
Valence charge for ps generation:    1.00000

xc_check: Exchange-correlation functional:
xc_check: Ceperley-Alder
xc_check: WARNING: Pseudopotential generated with GGA PBE functional
V l=0 = -2*Zval/r beyond r=  1.2977
V l=1 = -2*Zval/r beyond r=  1.2815
V l=2 = -2*Zval/r beyond r=  1.2656
All V_l potentials equal beyond r=  1.2977
This should be close to max(r_c) in ps generation
All pots = -2*Zval/r beyond r=  1.2977

VLOCAL1: 99.0% of the norm of Vloc inside     25.776 Ry
VLOCAL1: 99.9% of the norm of Vloc inside     58.745 Ry
atom: Maximum radius for 4*pi*r*r*local-pseudopot. charge    1.52711
atom: Maximum radius for r*vlocal+2*Zval:    1.28155

KBgen: Kleinman-Bylander projectors: 
GHOST: No ghost state for L =  0
   l= 0   rc=  1.434438   el= -0.456815   Ekb= -1.960338   kbcos= -0.349997
GHOST: No ghost state for L =  1
   l= 1   rc=  1.508111   el=  0.001431   Ekb= -0.423993   kbcos= -0.025386
GHOST: No ghost state for L =  2
   l= 2   rc=  1.546352   el=  0.002365   Ekb= -0.376562   kbcos= -0.002012

KBgen: Total number of  Kleinman-Bylander projectors:    9
atom: -------------------------------------------------------------------------

atom: SANKEY-TYPE ORBITALS:
atom: Selected multiple-zeta basis: split     

SPLIT: Orbitals with angular momentum L= 0

SPLIT: Basis orbitals for state 1s

SPLIT: PAO cut-off radius determined from an
SPLIT: energy shift=  0.020000 Ry

   izeta = 1
                 lambda =    1.000000
                     rc =    4.828263
                 energy =   -0.438372
                kinetic =    0.921576
    potential(screened) =   -1.359947
       potential(ionic) =   -1.906664

   izeta = 2
                 rmatch =    3.903467
              splitnorm =    0.150000
                 energy =   -0.330751
                kinetic =    1.475177
    potential(screened) =   -1.805928
       potential(ionic) =   -2.389550

POLgen: Perturbative polarization orbital with L=  1

POLgen: Polarization orbital for state 1s

   izeta = 1
                     rc =    4.828263
                 energy =    0.711580
                kinetic =    1.391494
    potential(screened) =   -0.679914
       potential(ionic) =   -1.168115
atom: Total number of Sankey-type orbitals:  5

atm_pop: Valence configuration (for local Pseudopot. screening):
 1s( 1.00)                                                            
Vna: chval, zval:    1.00000   1.00000

Vna:  Cut-off radius for the neutral-atom potential:   4.828263

atom: _________________________________________________________________________

prinput: Basis input ----------------------------------------------------------

PAO.BasisType split     

%block ChemicalSpeciesLabel
    1    6 c                       # Species index, atomic number, species label
    2    7 n                       # Species index, atomic number, species label
    3    1 h                       # Species index, atomic number, species label
%endblock ChemicalSpeciesLabel

%block PAO.Basis                 # Define Basis set
c                     2                    # Species label, number of l-shells
 n=2   0   2                         # n, l, Nzeta 
   4.192      3.432   
   1.000      1.000   
 n=2   1   2 P   1                   # n, l, Nzeta, Polarization, NzetaPol
   4.994      3.519   
   1.000      1.000   
n                     2                    # Species label, number of l-shells
 n=2   0   2                         # n, l, Nzeta 
   3.684      2.905   
   1.000      1.000   
 n=2   1   2 P   1                   # n, l, Nzeta, Polarization, NzetaPol
   4.389      2.979   
   1.000      1.000   
h                     1                    # Species label, number of l-shells
 n=1   0   2 P   1                   # n, l, Nzeta, Polarization, NzetaPol
   4.828      3.903   
   1.000      1.000   
%endblock PAO.Basis

prinput: ----------------------------------------------------------------------

coor:   Atomic-coordinates input format  =     Cartesian coordinates
coor:                                          (in Angstroms)

siesta: Atomic coordinates (Bohr) and species
siesta:      1.78303  -0.28845  -0.23138  1        1
siesta:      4.61331  -0.19213  -0.19517  1        2
siesta:      5.88102   2.09971  -0.17291  1        3
siesta:      8.50574   2.12436   0.13517  1        4
siesta:      9.80077   4.43914   0.28467  1        5
siesta:     12.40373   4.51785   0.79178  1        6
siesta:     13.74034   6.77614   1.09279  1        7
siesta:     16.22986   6.92224   1.66598  2        8
siesta:     17.46436   4.71296   1.93015  1        9
siesta:     16.34260   2.36838   1.62224  1       10
siesta:     13.75825   2.25401   1.05350  1       11
siesta:     12.47509  -0.06280   0.79633  1       12
siesta:      9.82962  -0.17831   0.36920  1       13
siesta:      8.38835  -2.42329   0.20564  1       14
siesta:      9.49951  -5.01961   0.46438  1       15
siesta:      5.83081  -2.42560  -0.04276  2       16
siesta:      0.95157   1.58425  -0.51232  3       17
siesta:      1.10245  -1.02805   1.57792  3       18
siesta:      1.12639  -1.52597  -1.75085  3       19
siesta:      4.82563   3.85400  -0.30910  3       20
siesta:      8.76520   6.20052   0.08319  3       21
siesta:     12.80691   8.59588   0.91019  3       22
siesta:     19.45128   4.87272   2.42393  3       23
siesta:     17.46062   0.66577   1.86354  3       24
siesta:     13.56060  -1.79097   0.99441  3       25
siesta:     11.53712  -5.08858   0.15354  3       26
siesta:      8.64405  -6.28474  -0.93428  3       27
siesta:      9.09117  -5.76193   2.35222  3       28

siesta: System type = molecule  

initatomlists: Number of atoms, orbitals, and projectors:     28   268   364

coxmol: Writing XMOL coordinates into file siesta.xyz                                                          

siesta: ******************** Simulation parameters ****************************
siesta:
siesta: The following are some of the parameters of the simulation.
siesta: A complete list of the parameters used, including default values,
siesta: can be found in file out.fdf
siesta:
redata: Spin configuration                          = collinear
redata: Number of spin components                   = 2
redata: Time-Reversal Symmetry                      = T
redata: Spin spiral                                 = F
redata: Long output                                 =   T
redata: Number of Atomic Species                    =        3
redata: Charge density info will appear in .RHO file
redata: Write Mulliken Pop.                         = Atomic and Orbital charges
redata: Matel table size (NRTAB)                    =     1024
redata: Mesh Cutoff                                 =   100.0000 Ry
redata: Net charge of the system                    =     0.0000 |e|
redata: Min. number of SCF Iter                     =        0
redata: Max. number of SCF Iter                     =      100
redata: SCF convergence failure will abort job
redata: SCF mix quantity                            = Hamiltonian
redata: Mix DM or H after convergence               =   F
redata: Recompute H after scf cycle                 =   F
redata: Mix DM in first SCF step                    =   T
redata: Write Pulay info on disk                    =   F
redata: New DM Occupancy tolerance                  = 0.000000000001
redata: No kicks to SCF
redata: DM Mixing Weight for Kicks                  =     0.5000
redata: Require Harris convergence for SCF          =   F
redata: Harris energy tolerance for SCF             =     0.000100 eV
redata: Require DM convergence for SCF              =   T
redata: DM tolerance for SCF                        =     0.001000
redata: Require EDM convergence for SCF             =   F
redata: EDM tolerance for SCF                       =     0.001000 eV
redata: Require H convergence for SCF               =   T
redata: Hamiltonian tolerance for SCF               =     0.001000 eV
redata: Require (free) Energy convergence for SCF   =   F
redata: (free) Energy tolerance for SCF             =     0.000100 eV
redata: Antiferro initial spin density              =   F
redata: Using Saved Data (generic)                  =   F
redata: Use continuation files for DM               =   F
redata: Neglect nonoverlap interactions             =   F
redata: Method of Calculation                       = Diagonalization
redata: Electronic Temperature                      =   299.9869 K
redata: Fix the spin of the system                  =   F
redata: Max. number of TDED Iter                    =        1
redata: Number of TDED substeps                     =        3
redata: Dynamics option                             = Nose thermostat MD run
redata: Initial MD time step                        =        1
redata:   Final MD time step                        =      250
redata: Length of MD time step                      =     1.0000 fs
redata: Initial Temperature of MD run               =   300.0000 K
redata: Perform a MD quench                         =   F
redata: Nose mass                                   =  1360.5800 eV/fs**2
redata: Target Temperature                          =   300.0000 Kelvin
mix.SCF: Pulay mixing                            = Pulay
mix.SCF:    Variant                              = stable
mix.SCF:    History steps                        = 3
mix.SCF:    Linear mixing weight                 =     0.250000
mix.SCF:    Mixing weight                        =     0.250000
mix.SCF:    SVD condition                        = 0.1000E-07
mix.SCF: Spin-component mixing                   all
redata: ***********************************************************************

%block SCF.Mixers
  Pulay
%endblock SCF.Mixers

%block SCF.Mixer.Pulay
  # Mixing method
  method pulay
  variant stable

  # Mixing options
  weight 0.2500
  weight.linear 0.2500
  history 3
%endblock SCF.Mixer.Pulay

Size of DM history Fstack: 1
Total number of electrons:    78.000000
Total ionic charge:    78.000000
 Kpoints in:            1 . Kpoints trimmed:            1

siesta: k-point coordinates (Bohr**-1) and weights:
siesta:          1  0.000000E+00  0.000000E+00  0.000000E+00   0.100000E+01

siesta: k-grid: Number of k-points =         1
siesta: k-points from Monkhorst-Pack grid
siesta: k-cutoff (effective) =     5.105 Ang
siesta: k-point supercell and displacements
siesta: k-grid:    1   0   0      0.000
siesta: k-grid:    0   1   0      0.000
siesta: k-grid:    0   0   1      0.000
 Kpoints in:            1 . Kpoints trimmed:            1

siesta: PDOS k-point coordinates (Bohr**-1) and weights:
siesta:          1  0.000000E+00  0.000000E+00  0.000000E+00   0.100000E+01

siesta: PDOS k-grid: Number of k-points =         1
siesta: PDOS k-points from Monkhorst-Pack grid
siesta: PDOS k-cutoff (effective) =     0.000 Ang
siesta: PDOS k-point supercell and displacements
siesta: k-grid:    1   0   0      0.000
siesta: k-grid:    0   1   0      0.000
siesta: k-grid:    0   0   1      0.000

diag: Algorithm                                     = D&C
diag: Used triangular part                          = Lower
diag: Absolute tolerance                            =  0.100E-15
diag: Orthogonalization factor                      =  0.100E-05
diag: Memory factor                                 =  1.0000
Using LatticeConstant from fdf file for BandLinesScale:    1.889727 Bohr
Beware any cell changes by the end of the run
Using LatticeConstant from fdf file for BandLinesScale:    1.889727 Bohr
Beware any cell changes by the end of the run


ts: **************************************************************
ts: Save H and S matrices                           =    F
ts: Save DM and EDM matrices                        =    F
ts: Only save the overlap matrix S                  =    F
ts: **************************************************************

************************ Begin: TS CHECKS AND WARNINGS ************************
************************ End: TS CHECKS AND WARNINGS **************************


                     ====================================
                        Begin MD step =      1
                     ====================================

outcoor: Atomic coordinates (Ang):                          
    0.94354000   -0.15264000   -0.12244000   1       1  c
    2.44126000   -0.10167000   -0.10328000   1       2  c
    3.11210000    1.11112000   -0.09150000   1       3  c
    4.50104000    1.12416000    0.07153000   1       4  c
    5.18634000    2.34909000    0.15064000   1       5  c
    6.56377000    2.39074000    0.41899000   1       6  c
    7.27107000    3.58578000    0.57828000   1       7  c
    8.58847000    3.66309000    0.88160000   2       8  n
    9.24174000    2.49399000    1.02139000   1       9  c
    8.64813000    1.25329000    0.85845000   1      10  c
    7.28055000    1.19277000    0.55749000   1      11  c
    6.60153000   -0.03323000    0.42140000   1      12  c
    5.20161000   -0.09436000    0.19537000   1      13  c
    4.43892000   -1.28235000    0.10882000   1      14  c
    5.02692000   -2.65626000    0.24574000   1      15  c
    3.08553000   -1.28357000   -0.02263000   2      16  n
    0.50355000    0.83835000   -0.27111000   3      17  h
    0.58339000   -0.54402000    0.83500000   3      18  h
    0.59606000   -0.80751000   -0.92651000   3      19  h
    2.55361000    2.03945000   -0.16357000   3      20  h
    4.63834000    3.28117000    0.04402000   3      21  h
    6.77712000    4.54874000    0.48165000   3      22  h
   10.29317000    2.57853000    1.28269000   3      23  h
    9.23976000    0.35231000    0.98614000   3      24  h
    7.17596000   -0.94774000    0.52622000   3      25  h
    6.10518000   -2.69276000    0.08125000   3      26  h
    4.57423000   -3.32574000   -0.49440000   3      27  h
    4.81084000   -3.04908000    1.24474000   3      28  h

outcell: Unit cell vectors (Ang):
       17.789620    0.000000    0.000000
        0.000000   15.874480    0.000000
        0.000000    0.000000   10.209200

outcell: Cell vector modules (Ang)   :   17.789620   15.874480   10.209200
outcell: Cell angles (23,13,12) (deg):     90.0000     90.0000     90.0000
outcell: Cell volume (Ang**3)        :   2883.0880
<dSpData1D:S at geom step 1
  <sparsity:sparsity for geom step 1
    nrows_g=268 nrows=268 sparsity=.7708 nnzs=55362, refcount: 7>
  <dData1D:(new from dSpData1D) n=55362, refcount: 1>
refcount: 1>
new_DM -- step:     1
Initializing Density Matrix...
DM filled with atomic data:
<dSpData2D:DM initialized from atoms
  <sparsity:sparsity for geom step 1
    nrows_g=268 nrows=268 sparsity=.7708 nnzs=55362, refcount: 8>
  <dData2D:DM n=55362 m=2, refcount: 1>
refcount: 1>
     spin moment: S , {S} =   46.00000       0.0       0.0  46.00000
No. of atoms with KB's overlaping orbs in proc 0. Max # of overlaps:      28     168

InitMesh: MESH = 108 x 96 x 64 = 663552
InitMesh: Mesh cutoff (required, used) =   100.000   101.075 Ry
New grid distribution [1]: sub = 2

stepf: Fermi-Dirac step function

siesta: Program's energy decomposition (eV):
siesta: Ebs     =      -814.344744
siesta: Eions   =      4635.983882
siesta: Ena     =       950.824539
siesta: Ekin    =      2163.535473
siesta: Enl     =      -309.530214
siesta: Eso     =         0.000000
siesta: Edftu   =         0.000000
siesta: DEna    =      -120.915007
siesta: DUscf   =        16.244235
siesta: DUext   =         0.000000
siesta: Exc     =     -1062.237192
siesta: eta*DQ  =         0.000000
siesta: Emadel  =         0.000000
siesta: Emeta   =         0.000000
siesta: Emolmec =         0.000000
siesta: Ekinion =         0.000000
siesta: Eharris =     -2996.651376
siesta: Etot    =     -2998.062049
siesta: FreeEng =     -2998.062049

        iscf     Eharris(eV)        E_KS(eV)     FreeEng(eV)     dDmax    Ef(eV) dHmax(eV)
   scf:    1    -2996.651376    -2998.062049    -2998.062049  0.973079 -5.229138  8.683037
     spin moment: S , {S} =    2.00000       0.0       0.0   2.00000
timer: Routine,Calls,Time,% = IterSCF        1       1.126   6.51
   scf:    2    -3004.795935    -3001.826391    -3001.826419  0.051647 -4.673356  4.913182
     spin moment: S , {S} =    2.00000       0.0       0.0   2.00000
   scf:    3    -3007.411970    -3004.860350    -3004.860406  0.102341 -3.905718  2.012695
     spin moment: S , {S} =    0.00021       0.0       0.0   0.00021
   scf:    4    -3005.116107    -3005.004129    -3005.004130  0.010057 -3.891441  1.184448
     spin moment: S , {S} =    0.00000       0.0       0.0   0.00000
   scf:    5    -3005.167664    -3005.088872    -3005.088872  0.015224 -3.968018  0.539907
     spin moment: S , {S} =    0.00000       0.0       0.0   0.00000
   scf:    6    -3005.143974    -3005.116697    -3005.116697  0.012701 -4.078051  0.204117
     spin moment: S , {S} =   -0.00000       0.0       0.0  -0.00000
   scf:    7    -3005.123495    -3005.120289    -3005.120289  0.003431 -4.053283  0.091184
     spin moment: S , {S} =   -0.00000       0.0       0.0  -0.00000
   scf:    8    -3005.122797    -3005.121573    -3005.121573  0.001863 -4.047621  0.051850
     spin moment: S , {S} =   -0.00000       0.0       0.0  -0.00000
   scf:    9    -3005.122875    -3005.122223    -3005.122223  0.001570 -4.050844  0.023015
     spin moment: S , {S} =   -0.00000       0.0       0.0  -0.00000
   scf:   10    -3005.122624    -3005.122421    -3005.122421  0.000697 -4.053541  0.016061
     spin moment: S , {S} =   -0.00000       0.0       0.0  -0.00000
   scf:   11    -3005.122654    -3005.122529    -3005.122529  0.000586 -4.053793  0.009645
     spin moment: S , {S} =    0.00000       0.0       0.0   0.00000
   scf:   12    -3005.122598    -3005.122561    -3005.122561  0.000276 -4.053296  0.005031
     spin moment: S , {S} =   -0.00000       0.0       0.0  -0.00000
   scf:   13    -3005.122574    -3005.122567    -3005.122567  0.000095 -4.052946  0.003648
     spin moment: S , {S} =    0.00000       0.0       0.0   0.00000
   scf:   14    -3005.122573    -3005.122570    -3005.122570  0.000073 -4.052572  0.002121
     spin moment: S , {S} =   -0.00000       0.0       0.0  -0.00000
   scf:   15    -3005.122572    -3005.122571    -3005.122571  0.000057 -4.052241  0.001107
     spin moment: S , {S} =    0.00000       0.0       0.0   0.00000
   scf:   16    -3005.122572    -3005.122571    -3005.122571  0.000034 -4.052164  0.000660
     spin moment: S , {S} =    0.00000       0.0       0.0   0.00000

SCF Convergence by DM+H criterion
max |DM_out - DM_in|         :     0.0000344744
max |H_out - H_in|      (eV) :     0.0006603261
SCF cycle converged after 16 iterations

Using DM_out to compute the final energy and forces
No. of atoms with KB's overlaping orbs in proc 0. Max # of overlaps:      28     168

siesta: E_KS(eV) =            -3005.1226

siesta: E_KS - E_eggbox =     -3005.1226
     spin moment: S , {S} =    0.00000       0.0       0.0   0.00000

siesta: Atomic forces (eV/Ang):
     1    0.783505    0.052625   -0.157574
     2   -0.254896    0.674537    0.100492
     3   -0.628288   -0.782391   -0.067693
     4   -0.027093    1.645688   -0.127491
     5    0.488377   -0.496887    0.169878
     6   -1.288367    0.476043   -0.302239
     7    2.604517    0.685590    0.628301
     8   -2.440436   -0.230940   -0.347951
     9   -0.546103   -0.619390   -0.169469
    10    0.684852    0.887492    0.155393
    11   -0.157334   -1.884459   -0.034021
    12   -0.830097    0.238346   -0.082760
    13    1.576146   -0.247167    0.188624
    14   -2.019417   -1.160694   -0.045014
    15   -0.110249    0.726159   -0.318237
    16    2.536987   -1.194488    0.498105
    17   -0.187255    0.593135   -0.076260
    18   -0.243968   -0.353125    0.514138
    19   -0.231080   -0.532422   -0.412683
    20   -0.312171    0.697199   -0.063104
    21   -0.425056    0.649137   -0.075335
    22   -0.522494    0.712385   -0.125852
    23    0.796985    0.008829    0.171959
    24    0.348259   -0.706465    0.064683
    25    0.385596   -0.732284    0.087378
    26    0.762411    0.093624   -0.017204
    27   -0.432448   -0.326123   -0.296122
    28   -0.126836   -0.261489    0.583354
----------------------------------------
   Tot    0.184045   -1.387536    0.443298
----------------------------------------
   Max    2.604517
   Res    0.779028    sqrt( Sum f_i^2 / 3N )
----------------------------------------
   Max    2.604517    constrained

Stress tensor Voigt[x,y,z,yz,xz,xy] (kbar):       -2.16       -7.29       -1.31        0.44       -0.37        1.91
(Free)E + p*V (eV/cell)    -2998.6702
Target enthalpy (eV/cell)    -3005.1226

siesta: Stress tensor (static) (eV/Ang**3):
        -0.001157    0.001125   -0.000191
         0.001125   -0.004289    0.000265
        -0.000191    0.000265   -0.000547

siesta: Pressure (static):          3.20064027  kBar

siesta: Stress tensor (total) (eV/Ang**3):
        -0.001348    0.001190   -0.000234
         0.001190   -0.004549    0.000272
        -0.000234    0.000272   -0.000818

siesta: Pressure (total):          3.58572385  kBar

mulliken: Atomic and Orbital Populations:

mulliken: Spin UP 

Species: c                   
Atom  Qatom  Qorb
               2s      2s      2py     2pz     2px     2py     2pz     2px     
               3Pdxy   3Pdyz   3Pdz2   3Pdxz   3Pdx2-y2
   1  1.698  -0.041   0.406   0.065   0.063   0.202   0.356   0.354   0.253
              0.009   0.005   0.006   0.011   0.008
   2  2.033   0.265   0.240   0.303   0.373   0.217   0.188   0.082   0.250
              0.030   0.022   0.003   0.017   0.042
   3  1.903   0.158   0.293   0.105   0.396   0.208   0.338   0.081   0.266
              0.022   0.007   0.001   0.012   0.015
   4  1.968   0.208   0.271   0.209   0.344   0.219   0.265   0.107   0.260
              0.025   0.016   0.003   0.017   0.026
   5  1.901   0.162   0.295   0.106   0.385   0.217   0.336   0.081   0.259
              0.021   0.008   0.002   0.013   0.017
   6  1.964   0.203   0.271   0.216   0.342   0.207   0.263   0.114   0.266
              0.024   0.015   0.004   0.015   0.024
   7  1.962   0.196   0.278   0.106   0.383   0.305   0.344   0.073   0.187
              0.039   0.009   0.004   0.017   0.022
   9  1.955   0.187   0.277   0.317   0.373   0.096   0.182   0.090   0.343
              0.020   0.020   0.003   0.006   0.042
  10  1.880   0.152   0.296   0.113   0.372   0.198   0.334   0.092   0.268
              0.022   0.008   0.002   0.011   0.013
  11  1.970   0.207   0.270   0.209   0.342   0.217   0.265   0.113   0.260
              0.026   0.016   0.004   0.015   0.026
  12  1.903   0.164   0.295   0.118   0.388   0.210   0.328   0.077   0.263
              0.022   0.008   0.002   0.013   0.017
  13  1.984   0.213   0.268   0.238   0.361   0.204   0.251   0.105   0.265
              0.024   0.014   0.003   0.015   0.024
  14  2.037   0.274   0.241   0.201   0.370   0.337   0.262   0.077   0.164
              0.040   0.017   0.003   0.021   0.030
  15  1.699  -0.039   0.406   0.186   0.066   0.076   0.266   0.352   0.348
              0.006   0.011   0.007   0.003   0.012

Species: n                   
Atom  Qatom  Qorb
               2s      2s      2py     2pz     2px     2py     2pz     2px     
               3Pdxy   3Pdyz   3Pdz2   3Pdxz   3Pdx2-y2
   8  2.389   0.309   0.303   0.580   0.424   0.292   0.107   0.091   0.240
              0.011   0.007   0.004   0.009   0.013
  16  2.409   0.303   0.305   0.576   0.448   0.309   0.106   0.082   0.236
              0.011   0.007   0.004   0.008   0.014

Species: h                   
Atom  Qatom  Qorb
               1s      1s      2Ppy    2Ppz    2Ppx    
  17  0.601   0.379   0.172   0.016   0.019   0.015
  18  0.601   0.374   0.173   0.019   0.016   0.018
  19  0.602   0.376   0.173   0.018   0.017   0.018
  20  0.629   0.414   0.159   0.022   0.019   0.015
  21  0.625   0.410   0.160   0.021   0.018   0.015
  22  0.617   0.408   0.163   0.022   0.015   0.008
  23  0.618   0.411   0.161   0.008   0.017   0.021
  24  0.627   0.413   0.158   0.021   0.019   0.016
  25  0.626   0.406   0.163   0.022   0.019   0.016
  26  0.600   0.370   0.179   0.015   0.018   0.017
  27  0.599   0.370   0.177   0.017   0.016   0.019
  28  0.600   0.372   0.174   0.019   0.017   0.019

mulliken: Qtot =       39.000

mulliken: Spin DOWN 

Species: c                   
Atom  Qatom  Qorb
               2s      2s      2py     2pz     2px     2py     2pz     2px     
               3Pdxy   3Pdyz   3Pdz2   3Pdxz   3Pdx2-y2
   1  1.697  -0.041   0.406   0.065   0.062   0.202   0.356   0.354   0.253
              0.009   0.005   0.006   0.011   0.008
   2  2.033   0.265   0.240   0.303   0.373   0.217   0.188   0.082   0.250
              0.030   0.022   0.003   0.017   0.042
   3  1.903   0.158   0.293   0.105   0.396   0.208   0.338   0.081   0.266
              0.022   0.007   0.001   0.012   0.015
   4  1.968   0.208   0.271   0.209   0.344   0.219   0.265   0.107   0.260
              0.025   0.016   0.003   0.017   0.026
   5  1.901   0.162   0.295   0.106   0.385   0.217   0.336   0.081   0.259
              0.021   0.008   0.002   0.013   0.017
   6  1.964   0.203   0.271   0.216   0.342   0.207   0.263   0.114   0.266
              0.024   0.015   0.004   0.015   0.024
   7  1.962   0.196   0.278   0.106   0.383   0.305   0.344   0.073   0.187
              0.039   0.009   0.004   0.017   0.022
   9  1.955   0.187   0.277   0.317   0.373   0.096   0.182   0.090   0.343
              0.020   0.020   0.003   0.006   0.042
  10  1.880   0.152   0.296   0.113   0.372   0.198   0.334   0.092   0.268
              0.022   0.008   0.002   0.011   0.013
  11  1.970   0.207   0.270   0.209   0.342   0.217   0.265   0.113   0.260
              0.026   0.016   0.004   0.015   0.026
  12  1.903   0.164   0.295   0.118   0.388   0.210   0.328   0.077   0.263
              0.022   0.008   0.002   0.013   0.017
  13  1.984   0.213   0.268   0.238   0.361   0.204   0.251   0.105   0.265
              0.024   0.014   0.003   0.015   0.024
  14  2.037   0.274   0.241   0.201   0.370   0.337   0.262   0.077   0.164
              0.040   0.017   0.003   0.021   0.030
  15  1.699  -0.039   0.406   0.186   0.066   0.076   0.266   0.352   0.348
              0.006   0.011   0.007   0.003   0.012

Species: n                   
Atom  Qatom  Qorb
               2s      2s      2py     2pz     2px     2py     2pz     2px     
               3Pdxy   3Pdyz   3Pdz2   3Pdxz   3Pdx2-y2
   8  2.389   0.309   0.303   0.580   0.424   0.292   0.107   0.091   0.240
              0.011   0.007   0.004   0.009   0.013
  16  2.409   0.303   0.305   0.576   0.448   0.309   0.106   0.082   0.236
              0.011   0.007   0.004   0.008   0.014

Species: h                   
Atom  Qatom  Qorb
               1s      1s      2Ppy    2Ppz    2Ppx    
  17  0.601   0.379   0.172   0.016   0.019   0.015
  18  0.601   0.374   0.173   0.019   0.016   0.018
  19  0.602   0.376   0.173   0.018   0.017   0.018
  20  0.629   0.414   0.159   0.022   0.019   0.015
  21  0.625   0.410   0.160   0.021   0.018   0.015
  22  0.617   0.408   0.163   0.022   0.015   0.008
  23  0.618   0.411   0.161   0.008   0.017   0.021
  24  0.627   0.413   0.158   0.021   0.019   0.016
  25  0.626   0.406   0.164   0.022   0.019   0.016
  26  0.600   0.370   0.180   0.015   0.018   0.017
  27  0.599   0.370   0.177   0.017   0.016   0.019
  28  0.600   0.372   0.174   0.019   0.017   0.019

mulliken: Qtot =       39.000

siesta: Temp_ion =     300.000 K

                     ====================================
                        Begin MD step =      2
                     ====================================

outcoor: Atomic coordinates (Ang):                          
    0.94966457   -0.16186773   -0.12046852   1       1  c
    2.44015157   -0.09919355   -0.10348917   1       2  c
    3.11470474    1.10803177   -0.09556690   1       3  c
    4.50042573    1.12859830    0.07743696   1       4  c
    5.18345971    2.35351263    0.14440275   1       5  c
    6.55899152    2.39551456    0.43197605   1       6  c
    7.27399483    3.59162970    0.57917265   1       7  c
    8.58422779    3.65864329    0.87581177   2       8  n
    9.24557110    2.49091299    1.01589701   1       9  c
    8.65263006    1.25721462    0.86117402   1      10  c
    7.28276149    1.19559635    0.55812855   1      11  c
    6.60649969   -0.03576553    0.42600226   1      12  c
    5.20194310   -0.09312604    0.19531116   1      13  c
    4.43020272   -1.28956499    0.10272620   1      14  c
    5.02580808   -2.65803619    0.24710191   1      15  c
    3.08434907   -1.28413306   -0.02432185   2      16  n
    0.50318071    0.83136217   -0.28157157   3      17  h
    0.60109102   -0.54996365    0.85683591   3      18  h
    0.58394872   -0.79208910   -0.93269370   3      19  h
    2.53490627    2.05130008   -0.16296773   3      20  h
    4.64422677    3.29580292    0.03054486   3      21  h
    6.78440635    4.54450636    0.51019131   3      22  h
   10.30252767    2.56882448    1.28265528   3      23  h
    9.20762575    0.37258764    0.98908072   3      24  h
    7.16550603   -0.93764618    0.51612838   3      25  h
    6.12116448   -2.72776068    0.09548254   3      26  h
    4.56150697   -3.33494386   -0.49771207   3      27  h
    4.81865371   -3.02336110    1.21987951   3      28  h

outcell: Unit cell vectors (Ang):
       17.789620    0.000000    0.000000
        0.000000   15.874480    0.000000
        0.000000    0.000000   10.209200

outcell: Cell vector modules (Ang)   :   17.789620   15.874480   10.209200
outcell: Cell angles (23,13,12) (deg):     90.0000     90.0000     90.0000
outcell: Cell volume (Ang**3)        :   2883.0880
<dSpData1D:S at geom step 2
  <sparsity:sparsity for geom step 2
    nrows_g=268 nrows=268 sparsity=.7708 nnzs=55362, refcount: 7>
  <dData1D:(new from dSpData1D) n=55362, refcount: 1>
refcount: 1>
new_DM -- step:     2
Re-using DM from previous geometries...
Number of DMs in history: 1
 DM extrapolation coefficients: 
1   1.00000
New DM after history re-use:
<dSpData2D:SpM extrapolated using coords
  <sparsity:sparsity for geom step 2
    nrows_g=268 nrows=268 sparsity=.7708 nnzs=55362, refcount: 9>
  <dData2D:(temp array for extrapolation) n=55362 m=2, refcount: 1>
refcount: 1>
     spin moment: S , {S} =    0.00000       0.0       0.0   0.00000
No. of atoms with KB's overlaping orbs in proc 0. Max # of overlaps:      28     168

InitMesh: MESH = 108 x 96 x 64 = 663552
InitMesh: Mesh cutoff (required, used) =   100.000   101.075 Ry
New grid distribution [1]: sub = 2

        iscf     Eharris(eV)        E_KS(eV)     FreeEng(eV)     dDmax    Ef(eV) dHmax(eV)
   scf:    1    -3004.814133    -3005.009162    -3005.009162  0.010763 -3.612216  0.772840
     spin moment: S , {S} =   -0.00000       0.0       0.0  -0.00000
   scf:    2    -3003.742802    -3004.646187    -3004.646187  0.023693 -3.659152  2.327457
     spin moment: S , {S} =   -0.00000       0.0       0.0  -0.00000
   scf:    3    -3005.141999    -3005.055797    -3005.055797  0.018810 -3.560512  0.087049
     spin moment: S , {S} =    0.00000       0.0       0.0   0.00000
   scf:    4    -3005.056686    -3005.056325    -3005.056325  0.000446 -3.558267  0.030874
     spin moment: S , {S} =   -0.00000       0.0       0.0  -0.00000
   scf:    5    -3005.056517    -3005.056436    -3005.056436  0.000126 -4.141298  0.008643
     spin moment: S , {S} =    0.00000       0.0       0.0   0.00000
   scf:    6    -3005.056454    -3005.056446    -3005.056446  0.000053 -4.141267  0.002388
     spin moment: S , {S} =    0.00000       0.0       0.0   0.00000
   scf:    7    -3005.056449    -3005.056448    -3005.056448  0.000021 -4.141308  0.001652
     spin moment: S , {S} =   -0.00000       0.0       0.0  -0.00000
   scf:    8    -3005.056449    -3005.056448    -3005.056448  0.000017 -4.141313  0.000928
     spin moment: S , {S} =   -0.00000       0.0       0.0  -0.00000

SCF Convergence by DM+H criterion
max |DM_out - DM_in|         :     0.0000170547
max |H_out - H_in|      (eV) :     0.0009280512
SCF cycle converged after 8 iterations

Using DM_out to compute the final energy and forces
No. of atoms with KB's overlaping orbs in proc 0. Max # of overlaps:      28     168

siesta: E_KS(eV) =            -3005.0564
     spin moment: S , {S} =   -0.00000       0.0       0.0  -0.00000

siesta: Atomic forces (eV/Ang):
     1    0.395702    0.355147    0.175250
     2   -0.057167    0.439627    0.007901
     3   -1.215420    0.018857   -0.076109
     4    0.071932    1.428994   -0.233899
     5    0.583619   -0.274048    0.338800
     6   -1.166890    0.354982   -0.486943
     7    2.459377    0.031380    0.697927
     8   -1.866734   -0.122213   -0.367550
     9   -0.349945   -0.312105   -0.084162
    10   -0.301600    1.658412   -0.097660
    11   -0.289392   -1.773888    0.057418
    12   -1.473734    1.034522   -0.248898
    13    1.498151   -0.440519    0.234607
    14   -1.379909   -0.591670    0.016729
    15    0.434010    0.753929   -1.814451
    16    2.341855   -1.241912    0.482560
    17   -0.097302    0.454372    0.075862
    18   -0.185328   -0.222099    0.084047
    19   -0.192542   -0.714663   -0.406549
    20    0.131591    0.031196   -0.026275
    21   -0.381165    0.461204   -0.066088
    22   -0.749856    1.169159   -0.200862
    23    0.574171    0.062378    0.102052
    24    1.129016   -1.805413    0.238393
    25    0.823228   -1.388822    0.159555
    26    0.193739    0.251238   -0.045465
    27   -0.223623   -0.109651    0.006858
    28   -0.462896   -0.786654    1.832469
----------------------------------------
   Tot    0.242889   -1.278260    0.355517
----------------------------------------
   Max    2.459377
   Res    0.827311    sqrt( Sum f_i^2 / 3N )
----------------------------------------
   Max    2.459377    constrained

Stress tensor Voigt[x,y,z,yz,xz,xy] (kbar):       -2.04       -7.59       -1.61        0.69       -0.18        2.08
(Free)E + p*V (eV/cell)    -2998.3150
Target enthalpy (eV/cell)    -3005.0564

siesta: Stress tensor (static) (eV/Ang**3):
        -0.001083    0.001231   -0.000069
         0.001231   -0.004476    0.000423
        -0.000069    0.000423   -0.000735

siesta: Pressure (static):          3.36127287  kBar

siesta: Stress tensor (total) (eV/Ang**3):
        -0.001274    0.001296   -0.000112
         0.001296   -0.004736    0.000430
        -0.000112    0.000430   -0.001005

siesta: Pressure (total):          3.74635646  kBar

mulliken: Atomic and Orbital Populations:

mulliken: Spin UP 

Species: c                   
Atom  Qatom  Qorb
               2s      2s      2py     2pz     2px     2py     2pz     2px     
               3Pdxy   3Pdyz   3Pdz2   3Pdxz   3Pdx2-y2
   1  1.699  -0.036   0.404   0.074   0.057   0.200   0.349   0.356   0.255
              0.009   0.005   0.006   0.011   0.008
   2  2.032   0.262   0.242   0.302   0.373   0.216   0.189   0.083   0.251
              0.031   0.022   0.003   0.017   0.042
   3  1.906   0.165   0.290   0.113   0.397   0.208   0.330   0.081   0.265
              0.022   0.007   0.001   0.013   0.015
   4  1.970   0.207   0.271   0.208   0.344   0.220   0.266   0.107   0.260
              0.025   0.016   0.003   0.017   0.026
   5  1.902   0.164   0.294   0.105   0.384   0.221   0.336   0.081   0.255
              0.021   0.008   0.002   0.012   0.018
   6  1.964   0.205   0.271   0.217   0.343   0.208   0.261   0.113   0.265
              0.024   0.014   0.004   0.015   0.024
   7  1.963   0.193   0.279   0.102   0.383   0.306   0.348   0.073   0.188
              0.039   0.009   0.004   0.017   0.022
   9  1.956   0.189   0.276   0.316   0.373   0.098   0.182   0.090   0.341
              0.020   0.020   0.003   0.006   0.041
  10  1.876   0.139   0.301   0.100   0.368   0.199   0.348   0.095   0.269
              0.022   0.008   0.002   0.011   0.014
  11  1.968   0.208   0.270   0.209   0.343   0.217   0.264   0.111   0.259
              0.025   0.016   0.004   0.015   0.026
  12  1.901   0.158   0.297   0.112   0.388   0.209   0.335   0.077   0.263
              0.022   0.007   0.002   0.012   0.017
  13  1.983   0.216   0.267   0.240   0.364   0.204   0.248   0.101   0.262
              0.024   0.014   0.003   0.015   0.023
  14  2.038   0.275   0.240   0.201   0.370   0.340   0.260   0.077   0.162
              0.041   0.016   0.003   0.021   0.030
  15  1.699  -0.040   0.406   0.187   0.062   0.076   0.265   0.359   0.345
              0.006   0.011   0.007   0.003   0.012

Species: n                   
Atom  Qatom  Qorb
               2s      2s      2py     2pz     2px     2py     2pz     2px     
               3Pdxy   3Pdyz   3Pdz2   3Pdxz   3Pdx2-y2
   8  2.387   0.304   0.304   0.579   0.423   0.290   0.108   0.092   0.243
              0.011   0.007   0.004   0.009   0.013
  16  2.408   0.300   0.306   0.574   0.447   0.309   0.107   0.083   0.238
              0.011   0.007   0.004   0.008   0.014

Species: h                   
Atom  Qatom  Qorb
               1s      1s      2Ppy    2Ppz    2Ppx    
  17  0.599   0.378   0.172   0.016   0.018   0.015
  18  0.601   0.376   0.171   0.019   0.017   0.018
  19  0.602   0.376   0.173   0.018   0.017   0.018
  20  0.625   0.415   0.155   0.021   0.018   0.015
  21  0.624   0.410   0.160   0.021   0.018   0.015
  22  0.619   0.408   0.165   0.022   0.015   0.008
  23  0.618   0.412   0.160   0.008   0.016   0.021
  24  0.632   0.413   0.162   0.021   0.020   0.016
  25  0.629   0.407   0.166   0.022   0.019   0.016
  26  0.598   0.372   0.176   0.015   0.018   0.017
  27  0.598   0.372   0.174   0.017   0.016   0.019
  28  0.604   0.368   0.180   0.020   0.016   0.020

mulliken: Qtot =       39.000

mulliken: Spin DOWN 

Species: c                   
Atom  Qatom  Qorb
               2s      2s      2py     2pz     2px     2py     2pz     2px     
               3Pdxy   3Pdyz   3Pdz2   3Pdxz   3Pdx2-y2
   1  1.699  -0.036   0.404   0.074   0.057   0.200   0.349   0.356   0.255
              0.009   0.005   0.006   0.011   0.008
   2  2.032   0.262   0.242   0.302   0.373   0.216   0.189   0.083   0.251
              0.031   0.022   0.003   0.017   0.042
   3  1.906   0.165   0.290   0.113   0.397   0.208   0.330   0.081   0.265
              0.022   0.007   0.001   0.013   0.015
   4  1.970   0.207   0.271   0.208   0.344   0.220   0.266   0.107   0.260
              0.025   0.016   0.003   0.017   0.026
   5  1.902   0.164   0.294   0.105   0.384   0.221   0.336   0.081   0.255
              0.021   0.008   0.002   0.012   0.018
   6  1.964   0.205   0.271   0.217   0.343   0.208   0.261   0.113   0.265
              0.024   0.014   0.004   0.015   0.024
   7  1.963   0.193   0.279   0.102   0.383   0.306   0.348   0.073   0.188
              0.039   0.009   0.004   0.017   0.022
   9  1.956   0.189   0.276   0.316   0.373   0.098   0.182   0.090   0.341
              0.020   0.020   0.003   0.006   0.041
  10  1.876   0.139   0.301   0.100   0.368   0.199   0.348   0.095   0.269
              0.022   0.008   0.002   0.011   0.014
  11  1.968   0.208   0.270   0.209   0.343   0.217   0.264   0.111   0.259
              0.025   0.016   0.004   0.015   0.026
  12  1.901   0.158   0.297   0.112   0.388   0.209   0.335   0.077   0.263
              0.022   0.007   0.002   0.012   0.017
  13  1.983   0.216   0.267   0.240   0.364   0.204   0.248   0.101   0.262
              0.024   0.014   0.003   0.015   0.023
  14  2.038   0.275   0.240   0.201   0.370   0.340   0.260   0.077   0.162
              0.041   0.016   0.003   0.021   0.030
  15  1.699  -0.040   0.406   0.187   0.062   0.076   0.265   0.359   0.345
              0.006   0.011   0.007   0.003   0.012

Species: n                   
Atom  Qatom  Qorb
               2s      2s      2py     2pz     2px     2py     2pz     2px     
               3Pdxy   3Pdyz   3Pdz2   3Pdxz   3Pdx2-y2
   8  2.387   0.304   0.304   0.579   0.423   0.290   0.108   0.092   0.243
              0.011   0.007   0.004   0.009   0.013
  16  2.408   0.300   0.306   0.574   0.447   0.309   0.107   0.083   0.238
              0.011   0.007   0.004   0.008   0.014

Species: h                   
Atom  Qatom  Qorb
               1s      1s      2Ppy    2Ppz    2Ppx    
  17  0.599   0.378   0.172   0.016   0.018   0.015
  18  0.601   0.376   0.171   0.019   0.017   0.018
  19  0.602   0.376   0.173   0.018   0.017   0.018
  20  0.625   0.415   0.155   0.021   0.018   0.015
  21  0.624   0.410   0.160   0.021   0.018   0.015
  22  0.619   0.408   0.165   0.022   0.015   0.008
  23  0.618   0.412   0.160   0.008   0.016   0.021
  24  0.632   0.413   0.162   0.021   0.020   0.016
  25  0.629   0.407   0.166   0.022   0.019   0.016
  26  0.598   0.372   0.176   0.015   0.018   0.017
  27  0.598   0.372   0.174   0.017   0.016   0.019
  28  0.604   0.368   0.180   0.020   0.016   0.020

mulliken: Qtot =       39.000

siesta: Temp_ion =     283.615 K

                     ====================================
                        Begin MD step =      3
                     ====================================

outcoor: Atomic coordinates (Ang):                          
    0.95610501   -0.17081258   -0.11835718   1       1  c
    2.43899750   -0.09636634   -0.10369204   1       2  c
    3.11634015    1.10495846   -0.09969468   1       3  c
    4.49986881    1.13417656    0.08315761   1       4  c
    5.18104481    2.35771686    0.13843547   1       5  c
    6.55328212    2.40057245    0.44457425   1       6  c
    7.27888139    3.59750467    0.58062201   1       7  c
    8.57870903    3.65411283    0.86977199   2       8  n
    9.24912324    2.48758692    1.01033666   1       9  c
    8.65688975    1.26246217    0.86382025   1      10  c
    7.28474226    1.19700796    0.55881293   1      11  c
    6.61029413   -0.03747603    0.43040618   1      12  c
    5.20347116   -0.09224339    0.19543943   1      13  c
    4.42038445   -1.29725221    0.09664549   1      14  c
    5.02504228   -2.65921113    0.24701666   1      15  c
    3.08476933   -1.28554528   -0.02568382   2      16  n
    0.50188855    0.82868349   -0.29131407   3      17  h
    0.61703507   -0.55801404    0.87946986   3      18  h
    0.57001078   -0.78344569   -0.94273353   3      19  h
    2.51744982    2.06344654   -0.16261464   3      20  h
    4.64649866    3.31481069    0.01644234   3      21  h
    6.78458107    4.55136130    0.53682877   3      22  h
   10.31733140    2.55971018    1.28358846   3      23  h
    9.18619819    0.37574288    0.99428257   3      24  h
    7.16285944   -0.94072407    0.50754961   3      25  h
    6.13898712   -2.76037999    0.10928447   3      26  h
    4.54666248   -3.34518808   -0.50095925   3      27  h
    4.82207746   -3.00510206    1.21239784   3      28  h

outcell: Unit cell vectors (Ang):
       17.789620    0.000000    0.000000
        0.000000   15.874480    0.000000
        0.000000    0.000000   10.209200

outcell: Cell vector modules (Ang)   :   17.789620   15.874480   10.209200
outcell: Cell angles (23,13,12) (deg):     90.0000     90.0000     90.0000
outcell: Cell volume (Ang**3)        :   2883.0880
<dSpData1D:S at geom step 3
  <sparsity:sparsity for geom step 3
    nrows_g=268 nrows=268 sparsity=.7705 nnzs=55338, refcount: 7>
  <dData1D:(new from dSpData1D) n=55338, refcount: 1>
refcount: 1>
new_DM -- step:     3
Re-using DM from previous geometries...
Number of DMs in history: 1
 DM extrapolation coefficients: 
1   1.00000
New DM after history re-use:
<dSpData2D:SpM extrapolated using coords
  <sparsity:sparsity for geom step 3
    nrows_g=268 nrows=268 sparsity=.7705 nnzs=55338, refcount: 9>
  <dData2D:(temp array for extrapolation) n=55338 m=2, refcount: 1>
refcount: 1>
     spin moment: S , {S} =    0.00000       0.0       0.0   0.00000
No. of atoms with KB's overlaping orbs in proc 0. Max # of overlaps:      28     168

InitMesh: MESH = 108 x 96 x 64 = 663552
InitMesh: Mesh cutoff (required, used) =   100.000   101.075 Ry
New grid distribution [1]: sub = 2

        iscf     Eharris(eV)        E_KS(eV)     FreeEng(eV)     dDmax    Ef(eV) dHmax(eV)
   scf:    1    -3005.036496    -3004.970908    -3004.970908  0.007524 -3.649252  0.677132
     spin moment: S , {S} =   -0.00000       0.0       0.0  -0.00000
   scf:    2    -3004.312738    -3004.785484    -3004.785484  0.015615 -3.893333  1.634590
     spin moment: S , {S} =   -0.00000       0.0       0.0  -0.00000
   scf:    3    -3005.048718    -3004.999105    -3004.999105  0.011936 -3.685097  0.060451
     spin moment: S , {S} =   -0.00000       0.0       0.0  -0.00000
   scf:    4    -3004.999698    -3004.999471    -3004.999471  0.000445 -3.693290  0.015000
     spin moment: S , {S} =    0.00000       0.0       0.0   0.00000
   scf:    5    -3004.999531    -3004.999504    -3004.999504  0.000131 -3.695129  0.007641
     spin moment: S , {S} =   -0.00000       0.0       0.0  -0.00000
   scf:    6    -3004.999515    -3004.999510    -3004.999510  0.000045 -3.695496  0.002840
     spin moment: S , {S} =    0.00000       0.0       0.0   0.00000
   scf:    7    -3004.999514    -3004.999512    -3004.999512  0.000031 -3.695531  0.001290
     spin moment: S , {S} =    0.00000       0.0       0.0   0.00000
   scf:    8    -3004.999513    -3004.999513    -3004.999513  0.000022 -3.695533  0.000688
     spin moment: S , {S} =   -0.00000       0.0       0.0  -0.00000

SCF Convergence by DM+H criterion
max |DM_out - DM_in|         :     0.0000221751
max |H_out - H_in|      (eV) :     0.0006882085
SCF cycle converged after 8 iterations

Using DM_out to compute the final energy and forces
No. of atoms with KB's overlaping orbs in proc 0. Max # of overlaps:      28     168

siesta: E_KS(eV) =            -3004.9995
     spin moment: S , {S} =   -0.00000       0.0       0.0  -0.00000

siesta: Atomic forces (eV/Ang):
     1   -0.155081    0.569636    0.319937
     2    0.156899    0.144414   -0.075136
     3   -1.666112    0.733966   -0.067959
     4    0.163569    1.099120   -0.333810
     5    0.542378    0.160151    0.467423
     6   -0.940157    0.194846   -0.657517
     7    1.886942   -0.168073    0.684202
     8   -1.128116   -0.006688   -0.362615
     9    0.061773    0.073990    0.052173
    10   -0.842542    1.669410   -0.256980
    11   -0.437734   -1.531403    0.147300
    12   -1.704833    1.232593   -0.339755
    13    1.297246   -0.558793    0.258507
    14   -0.627929   -0.035141    0.094961
    15    0.830662    0.481391   -2.647168
    16    2.011182   -1.217544    0.445599
    17    0.037780    0.196613    0.236812
    18   -0.121614   -0.075691   -0.375248
    19   -0.048852   -0.712659   -0.193648
    20    0.511567   -0.522972   -0.003591
    21   -0.234810    0.098978   -0.032607
    22   -0.716897    1.135421   -0.225814
    23    0.166170    0.104195   -0.015565
    24    1.440008   -2.221481    0.316237
    25    0.914304   -1.495072    0.166633
    26   -0.394477    0.426107   -0.075289
    27   -0.007364    0.114761    0.312769
    28   -0.643580   -1.023045    2.412000
----------------------------------------
   Tot    0.350383   -1.132967    0.251852
----------------------------------------
   Max    2.647168
   Res    0.849065    sqrt( Sum f_i^2 / 3N )
----------------------------------------
   Max    2.647168    constrained

Stress tensor Voigt[x,y,z,yz,xz,xy] (kbar):       -1.58       -6.68       -1.38        0.68        0.04        1.58
(Free)E + p*V (eV/cell)    -2999.2184
Target enthalpy (eV/cell)    -3004.9995

siesta: Stress tensor (static) (eV/Ang**3):
        -0.000792    0.000949    0.000076
         0.000949   -0.003934    0.000453
         0.000076    0.000453   -0.000608

siesta: Pressure (static):          2.84861086  kBar

siesta: Stress tensor (total) (eV/Ang**3):
        -0.000989    0.000985    0.000027
         0.000985   -0.004169    0.000425
         0.000027    0.000425   -0.000858

siesta: Pressure (total):          3.21266262  kBar

mulliken: Atomic and Orbital Populations:

mulliken: Spin UP 

Species: c                   
Atom  Qatom  Qorb
               2s      2s      2py     2pz     2px     2py     2pz     2px     
               3Pdxy   3Pdyz   3Pdz2   3Pdxz   3Pdx2-y2
   1  1.703  -0.027   0.400   0.085   0.056   0.199   0.340   0.354   0.256
              0.009   0.005   0.006   0.012   0.008
   2  2.031   0.259   0.243   0.301   0.373   0.214   0.190   0.084   0.253
              0.031   0.021   0.003   0.018   0.041
   3  1.909   0.171   0.288   0.120   0.398   0.209   0.322   0.081   0.263
              0.022   0.008   0.001   0.013   0.015
   4  1.971   0.207   0.271   0.208   0.343   0.221   0.266   0.108   0.259
              0.025   0.016   0.003   0.017   0.026
   5  1.903   0.166   0.293   0.106   0.383   0.226   0.334   0.082   0.252
              0.021   0.008   0.002   0.012   0.018
   6  1.964   0.207   0.270   0.220   0.344   0.209   0.259   0.111   0.263
              0.024   0.014   0.004   0.015   0.024
   7  1.967   0.195   0.277   0.103   0.384   0.308   0.347   0.073   0.188
              0.040   0.008   0.004   0.018   0.022
   9  1.957   0.193   0.274   0.316   0.374   0.102   0.182   0.090   0.336
              0.020   0.020   0.003   0.006   0.041
  10  1.874   0.134   0.303   0.092   0.364   0.203   0.357   0.097   0.267
              0.022   0.008   0.002   0.011   0.014
  11  1.967   0.210   0.270   0.210   0.345   0.217   0.262   0.110   0.258
              0.025   0.016   0.004   0.015   0.026
  12  1.900   0.158   0.297   0.110   0.388   0.210   0.337   0.076   0.263
              0.022   0.007   0.002   0.012   0.017
  13  1.982   0.220   0.266   0.242   0.367   0.206   0.245   0.098   0.260
              0.023   0.014   0.003   0.015   0.023
  14  2.041   0.278   0.239   0.202   0.368   0.344   0.259   0.077   0.161
              0.042   0.016   0.003   0.022   0.030
  15  1.701  -0.034   0.403   0.189   0.064   0.077   0.264   0.360   0.340
              0.006   0.011   0.008   0.003   0.012

Species: n                   
Atom  Qatom  Qorb
               2s      2s      2py     2pz     2px     2py     2pz     2px     
               3Pdxy   3Pdyz   3Pdz2   3Pdxz   3Pdx2-y2
   8  2.384   0.298   0.307   0.577   0.420   0.287   0.110   0.094   0.247
              0.011   0.007   0.004   0.009   0.013
  16  2.406   0.296   0.307   0.570   0.445   0.309   0.108   0.085   0.240
              0.011   0.007   0.004   0.009   0.014

Species: h                   
Atom  Qatom  Qorb
               1s      1s      2Ppy    2Ppz    2Ppx    
  17  0.597   0.378   0.171   0.015   0.018   0.015
  18  0.600   0.378   0.168   0.019   0.017   0.018
  19  0.602   0.377   0.172   0.018   0.018   0.017
  20  0.622   0.417   0.151   0.021   0.018   0.015
  21  0.622   0.411   0.158   0.021   0.018   0.015
  22  0.618   0.408   0.165   0.022   0.015   0.008
  23  0.616   0.412   0.158   0.008   0.016   0.021
  24  0.634   0.413   0.163   0.022   0.020   0.016
  25  0.630   0.407   0.165   0.022   0.019   0.016
  26  0.596   0.374   0.172   0.015   0.017   0.017
  27  0.597   0.373   0.171   0.017   0.016   0.019
  28  0.605   0.365   0.183   0.020   0.016   0.021

mulliken: Qtot =       39.000

mulliken: Spin DOWN 

Species: c                   
Atom  Qatom  Qorb
               2s      2s      2py     2pz     2px     2py     2pz     2px     
               3Pdxy   3Pdyz   3Pdz2   3Pdxz   3Pdx2-y2
   1  1.703  -0.027   0.400   0.085   0.056   0.199   0.340   0.354   0.256
              0.009   0.005   0.006   0.012   0.008
   2  2.031   0.259   0.243   0.301   0.373   0.214   0.190   0.084   0.253
              0.031   0.021   0.003   0.018   0.041
   3  1.909   0.171   0.288   0.120   0.398   0.209   0.322   0.081   0.263
              0.022   0.008   0.001   0.013   0.015
   4  1.971   0.207   0.271   0.208   0.343   0.221   0.266   0.108   0.259
              0.025   0.016   0.003   0.017   0.026
   5  1.903   0.166   0.293   0.106   0.383   0.226   0.334   0.082   0.252
              0.021   0.008   0.002   0.012   0.018
   6  1.964   0.207   0.270   0.220   0.344   0.209   0.259   0.111   0.263
              0.024   0.014   0.004   0.015   0.024
   7  1.967   0.195   0.277   0.103   0.384   0.308   0.347   0.073   0.188
              0.040   0.008   0.004   0.018   0.022
   9  1.957   0.193   0.274   0.316   0.374   0.102   0.182   0.090   0.336
              0.020   0.020   0.003   0.006   0.041
  10  1.874   0.134   0.303   0.092   0.364   0.203   0.357   0.097   0.267
              0.022   0.008   0.002   0.011   0.014
  11  1.967   0.210   0.270   0.210   0.345   0.217   0.262   0.110   0.258
              0.025   0.016   0.004   0.015   0.026
  12  1.900   0.158   0.297   0.110   0.388   0.210   0.337   0.076   0.263
              0.022   0.007   0.002   0.012   0.017
  13  1.982   0.220   0.266   0.242   0.367   0.206   0.245   0.098   0.260
              0.023   0.014   0.003   0.015   0.023
  14  2.041   0.278   0.239   0.202   0.368   0.344   0.259   0.077   0.161
              0.042   0.016   0.003   0.022   0.030
  15  1.701  -0.034   0.403   0.189   0.064   0.077   0.264   0.360   0.340
              0.006   0.011   0.008   0.003   0.012

Species: n                   
Atom  Qatom  Qorb
               2s      2s      2py     2pz     2px     2py     2pz     2px     
               3Pdxy   3Pdyz   3Pdz2   3Pdxz   3Pdx2-y2
   8  2.384   0.298   0.307   0.577   0.420   0.287   0.110   0.094   0.247
              0.011   0.007   0.004   0.009   0.013
  16  2.406   0.296   0.307   0.570   0.445   0.309   0.108   0.085   0.240
              0.011   0.007   0.004   0.009   0.014

Species: h                   
Atom  Qatom  Qorb
               1s      1s      2Ppy    2Ppz    2Ppx    
  17  0.597   0.378   0.171   0.015   0.018   0.015
  18  0.600   0.378   0.168   0.019   0.017   0.018
  19  0.602   0.377   0.172   0.018   0.018   0.017
  20  0.622   0.417   0.151   0.021   0.018   0.015
  21  0.622   0.411   0.158   0.021   0.018   0.015
  22  0.618   0.408   0.165   0.022   0.015   0.008
  23  0.616   0.412   0.158   0.008   0.016   0.021
  24  0.634   0.413   0.163   0.022   0.020   0.016
  25  0.630   0.407   0.165   0.022   0.019   0.016
  26  0.596   0.374   0.172   0.015   0.017   0.017
  27  0.597   0.373   0.171   0.017   0.016   0.019
  28  0.605   0.365   0.183   0.020   0.016   0.021

mulliken: Qtot =       39.000

siesta: Temp_ion =     269.334 K

                     ====================================
                        Begin MD step =      4
                     ====================================

outcoor: Atomic coordinates (Ang):                          
    0.96242280   -0.17930451   -0.11599030   1       1  c
    2.43796839   -0.09342349   -0.10395488   1       2  c
    3.11664686    1.10247009   -0.10387733   1       3  c
    4.49944226    1.14063244    0.08861293   1       4  c
    5.17906213    2.36204952    0.13284006   1       5  c
    6.54682187    2.40578659    0.45665004   1       6  c
    7.28527387    3.60324654    0.58261736   1       7  c
    8.57241798    3.64957707    0.86348327   2       8  n
    9.25272524    2.48431932    1.00481702   1       9  c
    8.66047808    1.26904217    0.86626194   1      10  c
    7.28637419    1.19719827    0.55961491   1      11  c
    6.61272933   -0.03820363    0.43453982   1      12  c
    5.20603421   -0.09180631    0.19577393   1      13  c
    4.41006372   -1.30496871    0.09063953   1      14  c
    5.02493893   -2.66000227    0.24481987   1      15  c
    3.08656486   -1.28779028   -0.02674132   2      16  n
    0.50095452    0.82786925   -0.29881201   3      17  h
    0.63182820   -0.56678366    0.89854829   3      18  h
    0.55560722   -0.78156043   -0.95461173   3      19  h
    2.50484273    2.07063460   -0.16229555   3      20  h
    4.64654376    3.33476036    0.00202826   3      21  h
    6.77795608    4.56898680    0.56132872   3      22  h
   10.33371365    2.55158268    1.28437415   3      23  h
    9.17842558    0.35782796    1.00248477   3      24  h
    7.16888456   -0.95798317    0.50054996   3      25  h
    6.15307107   -2.78896301    0.12237453   3      26  h
    4.53174573   -3.35434546   -0.50124034   3      27  h
    4.81939743   -2.99654359    1.22779270   3      28  h

outcell: Unit cell vectors (Ang):
       17.789620    0.000000    0.000000
        0.000000   15.874480    0.000000
        0.000000    0.000000   10.209200

outcell: Cell vector modules (Ang)   :   17.789620   15.874480   10.209200
outcell: Cell angles (23,13,12) (deg):     90.0000     90.0000     90.0000
outcell: Cell volume (Ang**3)        :   2883.0880
<dSpData1D:S at geom step 4
  <sparsity:sparsity for geom step 4
    nrows_g=268 nrows=268 sparsity=.7688 nnzs=55218, refcount: 7>
  <dData1D:(new from dSpData1D) n=55218, refcount: 1>
refcount: 1>
new_DM -- step:     4
Re-using DM from previous geometries...
Number of DMs in history: 1
 DM extrapolation coefficients: 
1   1.00000
New DM after history re-use:
<dSpData2D:SpM extrapolated using coords
  <sparsity:sparsity for geom step 4
    nrows_g=268 nrows=268 sparsity=.7688 nnzs=55218, refcount: 9>
  <dData2D:(temp array for extrapolation) n=55218 m=2, refcount: 1>
refcount: 1>
     spin moment: S , {S} =   -0.00000       0.0       0.0  -0.00000
Note: For starting DM, Qtot, Tr[D*S] =         78.00000000         77.89850471
No. of atoms with KB's overlaping orbs in proc 0. Max # of overlaps:      28     165

InitMesh: MESH = 108 x 96 x 64 = 663552
InitMesh: Mesh cutoff (required, used) =   100.000   101.075 Ry
New grid distribution [1]: sub = 2

        iscf     Eharris(eV)        E_KS(eV)     FreeEng(eV)     dDmax    Ef(eV) dHmax(eV)
   scf:    1    -3005.273828    -3005.012178    -3005.012178  0.008326 -3.736031  0.846073
     spin moment: S , {S} =   -0.00000       0.0       0.0  -0.00000
   scf:    2    -3004.308799    -3004.815601    -3004.815601  0.017264 -4.129364  1.982048
     spin moment: S , {S} =   -0.00000       0.0       0.0  -0.00000
   scf:    3    -3005.099930    -3005.044031    -3005.044031  0.012330 -3.847384  0.056587
     spin moment: S , {S} =   -0.00000       0.0       0.0  -0.00000
   scf:    4    -3005.044502    -3005.044333    -3005.044333  0.000428 -3.864696  0.011835
     spin moment: S , {S} =    0.00000       0.0       0.0   0.00000
   scf:    5    -3005.044354    -3005.044342    -3005.044342  0.000069 -3.865756  0.006281
     spin moment: S , {S} =   -0.00000       0.0       0.0  -0.00000
   scf:    6    -3005.044352    -3005.044347    -3005.044347  0.000051 -3.866312  0.003018
     spin moment: S , {S} =   -0.00000       0.0       0.0  -0.00000
   scf:    7    -3005.044350    -3005.044349    -3005.044349  0.000040 -3.866607  0.000824
     spin moment: S , {S} =   -0.00000       0.0       0.0  -0.00000

SCF Convergence by DM+H criterion
max |DM_out - DM_in|         :     0.0000400957
max |H_out - H_in|      (eV) :     0.0008235320
SCF cycle converged after 7 iterations

Using DM_out to compute the final energy and forces
No. of atoms with KB's overlaping orbs in proc 0. Max # of overlaps:      28     165

siesta: E_KS(eV) =            -3005.0443
     spin moment: S , {S} =   -0.00000       0.0       0.0  -0.00000

siesta: Atomic forces (eV/Ang):
     1   -0.731731    0.688658    0.240417
     2    0.364614   -0.185964   -0.145582
     3   -1.878447    1.219610   -0.035544
     4    0.220907    0.684798   -0.431998
     5    0.437656    0.645787    0.565265
     6   -0.636727    0.026250   -0.812103
     7    0.916808    0.071373    0.621377
     8   -0.205464    0.139663   -0.319414
     9    0.522676    0.507303    0.197163
    10   -0.767091    0.583855   -0.256996
    11   -0.593757   -1.192041    0.233521
    12   -1.483692    0.737330   -0.368022
    13    1.002697   -0.582395    0.262753
    14    0.199910    0.459193    0.193323
    15    0.873229   -0.109860   -2.252381
    16    1.542673   -1.107276    0.392573
    17    0.168601   -0.078212    0.378197
    18   -0.086682    0.038344   -0.729099
    19    0.155998   -0.579791    0.149765
    20    0.732776   -0.848114   -0.000757
    21   -0.064900   -0.310793    0.016144
    22   -0.437499    0.644430   -0.236821
    23   -0.262637    0.140648   -0.140013
    24    1.121839   -1.586417    0.237754
    25    0.615968   -0.957634    0.125097
    26   -0.811915    0.569806   -0.119465
    27    0.155359    0.260610    0.524872
    28   -0.562404   -0.842189    1.863955
----------------------------------------
   Tot    0.508767   -0.963027    0.153981
----------------------------------------
   Max    2.252381
   Res    0.708696    sqrt( Sum f_i^2 / 3N )
----------------------------------------
   Max    2.252381    constrained

Stress tensor Voigt[x,y,z,yz,xz,xy] (kbar):       -1.11       -4.73       -0.58        0.40        0.21        0.51
(Free)E + p*V (eV/cell)    -3001.1926
Target enthalpy (eV/cell)    -3005.0443

siesta: Stress tensor (static) (eV/Ang**3):
        -0.000505    0.000312    0.000180
         0.000312   -0.002724    0.000310
         0.000180    0.000310   -0.000131

siesta: Pressure (static):          1.79475792  kBar

siesta: Stress tensor (total) (eV/Ang**3):
        -0.000695    0.000319    0.000134
         0.000319   -0.002951    0.000248
         0.000134    0.000248   -0.000361

siesta: Pressure (total):          2.14047879  kBar

mulliken: Atomic and Orbital Populations:

mulliken: Spin UP 

Species: c                   
Atom  Qatom  Qorb
               2s      2s      2py     2pz     2px     2py     2pz     2px     
               3Pdxy   3Pdyz   3Pdz2   3Pdxz   3Pdx2-y2
   1  1.706  -0.017   0.395   0.095   0.056   0.199   0.332   0.351   0.256
              0.010   0.005   0.006   0.012   0.008
   2  2.029   0.256   0.244   0.299   0.374   0.213   0.190   0.085   0.254
              0.031   0.021   0.003   0.018   0.041
   3  1.911   0.174   0.286   0.124   0.398   0.210   0.317   0.081   0.262
              0.022   0.008   0.001   0.013   0.015
   4  1.972   0.208   0.271   0.209   0.344   0.222   0.266   0.108   0.258
              0.025   0.016   0.003   0.017   0.026
   5  1.905   0.169   0.292   0.108   0.383   0.230   0.331   0.083   0.249
              0.021   0.008   0.002   0.012   0.018
   6  1.964   0.209   0.270   0.223   0.345   0.211   0.256   0.110   0.262
              0.024   0.014   0.004   0.015   0.023
   7  1.974   0.203   0.273   0.109   0.384   0.312   0.340   0.073   0.186
              0.042   0.008   0.004   0.018   0.022
   9  1.959   0.196   0.271   0.317   0.374   0.106   0.181   0.091   0.332
              0.021   0.020   0.003   0.006   0.041
  10  1.875   0.138   0.301   0.090   0.363   0.208   0.357   0.098   0.262
              0.021   0.008   0.002   0.011   0.014
  11  1.967   0.211   0.269   0.212   0.346   0.218   0.260   0.109   0.257
              0.025   0.016   0.004   0.015   0.026
  12  1.903   0.163   0.296   0.112   0.389   0.213   0.333   0.075   0.260
              0.022   0.007   0.002   0.012   0.017
  13  1.982   0.224   0.265   0.245   0.370   0.208   0.241   0.095   0.258
              0.023   0.013   0.003   0.015   0.023
  14  2.045   0.281   0.237   0.204   0.367   0.348   0.257   0.078   0.160
              0.043   0.016   0.003   0.022   0.029
  15  1.705  -0.022   0.397   0.191   0.071   0.079   0.262   0.352   0.336
              0.006   0.011   0.008   0.003   0.011

Species: n                   
Atom  Qatom  Qorb
               2s      2s      2py     2pz     2px     2py     2pz     2px     
               3Pdxy   3Pdyz   3Pdz2   3Pdxz   3Pdx2-y2
   8  2.380   0.290   0.309   0.573   0.417   0.284   0.113   0.097   0.253
              0.011   0.007   0.004   0.009   0.013
  16  2.404   0.292   0.309   0.567   0.444   0.308   0.110   0.087   0.243
              0.011   0.007   0.004   0.009   0.014

Species: h                   
Atom  Qatom  Qorb
               1s      1s      2Ppy    2Ppz    2Ppx    
  17  0.596   0.379   0.169   0.015   0.018   0.014
  18  0.599   0.379   0.166   0.019   0.018   0.018
  19  0.600   0.378   0.170   0.018   0.018   0.017
  20  0.619   0.418   0.149   0.021   0.017   0.015
  21  0.620   0.412   0.155   0.021   0.017   0.014
  22  0.616   0.409   0.163   0.022   0.015   0.008
  23  0.614   0.413   0.155   0.008   0.016   0.022
  24  0.631   0.413   0.161   0.022   0.019   0.016
  25  0.628   0.408   0.163   0.023   0.019   0.015
  26  0.594   0.377   0.169   0.014   0.017   0.018
[...]
   18.7883   18.9583   19.1762   19.3192   19.3686   19.5769   19.7439   19.8840   20.1026   20.3085
   20.4006   20.5154   20.7404   20.9534   21.2510   21.4548   21.5632   21.7090   22.0981   22.2444
   22.4858   22.7645   23.0955   23.4968   23.8262   23.9574   24.1666   25.0783   25.3859   25.6321
   25.9904   26.2754   26.4157   27.1306   27.4867   27.9229   29.0896   29.2383   29.5504   30.2040
   30.6133   31.5385   31.9050   32.3300   32.4954   33.1841   34.3146   34.3874   34.7744   35.1556
   35.5672   35.9810   36.4961   36.9042   37.4987   37.6006   38.4966   38.6578   38.7889   39.1550
   39.6966   40.1288   40.3169   40.7347   41.2194   41.3569   41.4640   42.1294   42.5213   43.2785
   43.4770   44.1012   44.8128   45.1598   45.5731   45.9466   46.7402   47.2039   47.6033   48.2830
   48.9337   49.3766   49.9499   50.4573   51.0947   51.6635   52.0250   52.3911   52.7766   53.1692
   53.3658   53.9265   54.3940   54.4944   55.1732   55.6219   56.0040   56.6364   57.0020   57.1098
   57.9677   58.2843   58.3973   58.8622   59.5897   60.2037   60.6533   61.2670   61.6163   62.5658
   63.6024   64.1763   65.0282   65.1768   66.4017   67.3758   67.5154   68.3126   69.6567   69.9965
   71.3894   73.4405   73.7095   74.3344   74.7336   75.0733   76.0892   76.9406   77.6495   79.3234
   80.3204   81.3109   82.7886   84.3965   87.1188   88.2234   89.7580   91.1784   94.0504   99.0837
  100.2860  101.7429  102.8593  104.4000  107.4944  112.3527  116.1357  118.9890
  75  2  -22.9692  -22.8540  -21.2731  -19.7300  -19.5217  -19.0516  -17.9253  -17.5548  -16.8496  -16.1775
         -15.1740  -14.8814  -14.3063  -13.2446  -12.8613  -12.4183  -11.5489  -11.1333  -10.9670  -10.6674
  -10.5722  -10.2757  -10.2066  -10.0379   -9.8457   -9.5279   -9.4606   -8.9736   -8.8776   -8.6605
   -8.4804   -8.0202   -7.8231   -7.2850   -6.6078   -6.2346   -5.6682   -5.4976   -4.8598   -3.0956
   -1.5702   -1.2216   -0.3157    0.0115    2.0202    2.1673    2.6176    2.7776    2.8737    3.1549
    3.2242    3.4989    3.6347    3.8273    3.9136    4.3224    4.4176    4.5761    4.8542    5.1382
    5.2814    5.9076    5.9994    6.1771    6.9839    7.0551    7.2381    7.8883    7.9598    8.0509
    8.3953    8.4233    8.5902    8.9995    9.1161    9.2607    9.4985    9.6747    9.9172   10.0727
   10.2104   10.3594   10.5053   10.5464   10.8482   11.1033   11.2324   11.3384   11.5543   11.8509
   11.9066   12.0713   12.1231   12.3931   12.5379   12.6836   12.8112   13.0321   13.1992   13.9051
   14.1029   14.3809   14.5920   15.1669   15.1993   15.7424   15.8777   16.6002   16.6763   16.7179
   17.2547   17.5144   17.6474   17.7772   18.1447   18.2311   18.3489   18.4355   18.5797   18.6458
   18.7883   18.9583   19.1762   19.3192   19.3686   19.5769   19.7439   19.8840   20.1026   20.3085
   20.4006   20.5154   20.7404   20.9534   21.2510   21.4548   21.5632   21.7090   22.0981   22.2444
   22.4858   22.7645   23.0955   23.4968   23.8262   23.9574   24.1666   25.0783   25.3859   25.6321
   25.9904   26.2754   26.4157   27.1306   27.4867   27.9229   29.0896   29.2383   29.5504   30.2040
   30.6133   31.5385   31.9050   32.3300   32.4954   33.1841   34.3146   34.3874   34.7744   35.1556
   35.5672   35.9810   36.4961   36.9042   37.4987   37.6006   38.4966   38.6578   38.7889   39.1550
   39.6966   40.1288   40.3169   40.7347   41.2194   41.3569   41.4640   42.1294   42.5213   43.2785
   43.4770   44.1012   44.8128   45.1598   45.5731   45.9466   46.7402   47.2039   47.6033   48.2830
   48.9337   49.3766   49.9499   50.4573   51.0947   51.6635   52.0250   52.3911   52.7766   53.1692
   53.3658   53.9265   54.3940   54.4944   55.1732   55.6219   56.0040   56.6364   57.0020   57.1098
   57.9677   58.2843   58.3973   58.8622   59.5897   60.2037   60.6533   61.2670   61.6163   62.5658
   63.6024   64.1763   65.0282   65.1768   66.4017   67.3758   67.5154   68.3126   69.6567   69.9965
   71.3894   73.4405   73.7095   74.3344   74.7336   75.0733   76.0892   76.9406   77.6495   79.3234
   80.3204   81.3109   82.7886   84.3965   87.1188   88.2234   89.7580   91.1784   94.0504   99.0837
  100.2860  101.7429  102.8593  104.4000  107.4944  112.3527  116.1357  118.9890
  76  2  -22.9692  -22.8540  -21.2731  -19.7300  -19.5217  -19.0516  -17.9253  -17.5548  -16.8496  -16.1775
         -15.1740  -14.8814  -14.3063  -13.2446  -12.8613  -12.4183  -11.5489  -11.1333  -10.9670  -10.6674
  -10.5722  -10.2757  -10.2066  -10.0379   -9.8457   -9.5279   -9.4606   -8.9736   -8.8776   -8.6605
   -8.4804   -8.0202   -7.8231   -7.2850   -6.6078   -6.2346   -5.6682   -5.4976   -4.8598   -3.0956
   -1.5702   -1.2216   -0.3157    0.0115    2.0202    2.1673    2.6176    2.7776    2.8737    3.1549
    3.2242    3.4989    3.6347    3.8273    3.9136    4.3224    4.4176    4.5761    4.8542    5.1382
    5.2814    5.9076    5.9994    6.1771    6.9839    7.0551    7.2381    7.8883    7.9598    8.0509
    8.3953    8.4233    8.5902    8.9995    9.1161    9.2607    9.4985    9.6747    9.9172   10.0727
   10.2104   10.3594   10.5053   10.5464   10.8482   11.1033   11.2324   11.3384   11.5543   11.8509
   11.9066   12.0713   12.1231   12.3931   12.5379   12.6836   12.8112   13.0321   13.1992   13.9051
   14.1029   14.3809   14.5920   15.1669   15.1993   15.7424   15.8777   16.6002   16.6763   16.7179
   17.2547   17.5144   17.6474   17.7772   18.1447   18.2311   18.3489   18.4355   18.5797   18.6458
   18.7883   18.9583   19.1762   19.3192   19.3686   19.5769   19.7439   19.8840   20.1026   20.3085
   20.4006   20.5154   20.7404   20.9534   21.2510   21.4548   21.5632   21.7090   22.0981   22.2444
   22.4858   22.7645   23.0955   23.4968   23.8262   23.9574   24.1666   25.0783   25.3859   25.6321
   25.9904   26.2754   26.4157   27.1306   27.4867   27.9229   29.0896   29.2383   29.5504   30.2040
   30.6133   31.5385   31.9050   32.3300   32.4954   33.1841   34.3146   34.3874   34.7744   35.1556
   35.5672   35.9810   36.4961   36.9042   37.4987   37.6006   38.4966   38.6578   38.7889   39.1550
   39.6966   40.1288   40.3169   40.7347   41.2194   41.3569   41.4640   42.1294   42.5213   43.2785
   43.4770   44.1012   44.8128   45.1598   45.5731   45.9466   46.7402   47.2039   47.6033   48.2830
   48.9337   49.3766   49.9499   50.4573   51.0947   51.6635   52.0250   52.3911   52.7766   53.1692
   53.3658   53.9265   54.3940   54.4944   55.1732   55.6219   56.0040   56.6364   57.0020   57.1098
   57.9677   58.2843   58.3973   58.8622   59.5897   60.2037   60.6533   61.2670   61.6163   62.5658
   63.6024   64.1763   65.0282   65.1768   66.4017   67.3758   67.5154   68.3126   69.6567   69.9965
   71.3894   73.4405   73.7095   74.3344   74.7336   75.0733   76.0892   76.9406   77.6495   79.3234
   80.3204   81.3109   82.7886   84.3965   87.1188   88.2234   89.7580   91.1784   94.0504   99.0837
  100.2860  101.7429  102.8593  104.4000  107.4944  112.3527  116.1357  118.9890

siesta: Eigenvalues (eV):
  ik is       eps
   1  1  -22.9692  -22.8540  -21.2731  -19.7300  -19.5217  -19.0516  -17.9253  -17.5548  -16.8496  -16.1775
         -15.1740  -14.8814  -14.3063  -13.2446  -12.8613  -12.4183  -11.5489  -11.1333  -10.9670  -10.6674
  -10.5722  -10.2757  -10.2066  -10.0379   -9.8457   -9.5279   -9.4606   -8.9736   -8.8776   -8.6605
   -8.4804   -8.0202   -7.8231   -7.2850   -6.6078   -6.2346   -5.6682   -5.4976   -4.8598   -3.0956
   -1.5702   -1.2216   -0.3157    0.0115    2.0202    2.1673    2.6176    2.7776    2.8737    3.1549
    3.2242    3.4989    3.6347    3.8273    3.9136    4.3224    4.4176    4.5761    4.8542    5.1382
    5.2814    5.9076    5.9994    6.1771    6.9839    7.0551    7.2381    7.8883    7.9598    8.0509
    8.3953    8.4233    8.5902    8.9995    9.1161    9.2607    9.4985    9.6747    9.9172   10.0727
   10.2104   10.3594   10.5053   10.5464   10.8482   11.1033   11.2324   11.3384   11.5543   11.8509
   11.9066   12.0713   12.1231   12.3931   12.5379   12.6836   12.8112   13.0321   13.1992   13.9051
   14.1029   14.3809   14.5920   15.1669   15.1993   15.7424   15.8777   16.6002   16.6763   16.7179
   17.2547   17.5144   17.6474   17.7772   18.1447   18.2311   18.3489   18.4355   18.5797   18.6458
   18.7883   18.9583   19.1762   19.3192   19.3686   19.5769   19.7439   19.8840   20.1026   20.3085
   20.4006   20.5154   20.7404   20.9534   21.2510   21.4548   21.5632   21.7090   22.0981   22.2444
   22.4858   22.7645   23.0955   23.4968   23.8262   23.9574   24.1666   25.0783   25.3859   25.6321
   25.9904   26.2754   26.4157   27.1306   27.4867   27.9229   29.0896   29.2383   29.5504   30.2040
   30.6133   31.5385   31.9050   32.3300   32.4954   33.1841   34.3146   34.3874   34.7744   35.1556
   35.5672   35.9810   36.4961   36.9042   37.4987   37.6006   38.4966   38.6578   38.7889   39.1550
   39.6966   40.1288   40.3169   40.7347   41.2194   41.3569   41.4640   42.1294   42.5213   43.2785
   43.4770   44.1012   44.8128   45.1598   45.5731   45.9466   46.7402   47.2039   47.6033   48.2830
   48.9337   49.3766   49.9499   50.4573   51.0947   51.6635   52.0250   52.3911   52.7766   53.1692
   53.3658   53.9265   54.3940   54.4944   55.1732   55.6219   56.0040   56.6364   57.0020   57.1098
   57.9677   58.2843   58.3973   58.8622   59.5897   60.2037   60.6533   61.2670   61.6163   62.5658
   63.6024   64.1763   65.0282   65.1768   66.4017   67.3758   67.5154   68.3126   69.6567   69.9965
   71.3894   73.4405   73.7095   74.3344   74.7336   75.0733   76.0892   76.9406   77.6495   79.3234
   80.3204   81.3109   82.7886   84.3965   87.1188   88.2234   89.7580   91.1784   94.0504   99.0837
  100.2860  101.7429  102.8593  104.4000  107.4944  112.3527  116.1357  118.9890
   1  2  -22.9692  -22.8540  -21.2731  -19.7300  -19.5217  -19.0516  -17.9253  -17.5548  -16.8496  -16.1775
         -15.1740  -14.8814  -14.3063  -13.2446  -12.8613  -12.4183  -11.5489  -11.1333  -10.9670  -10.6674
  -10.5722  -10.2757  -10.2066  -10.0379   -9.8457   -9.5279   -9.4606   -8.9736   -8.8776   -8.6605
   -8.4804   -8.0202   -7.8231   -7.2850   -6.6078   -6.2346   -5.6682   -5.4976   -4.8598   -3.0956
   -1.5702   -1.2216   -0.3157    0.0115    2.0202    2.1673    2.6176    2.7776    2.8737    3.1549
    3.2242    3.4989    3.6347    3.8273    3.9136    4.3224    4.4176    4.5761    4.8542    5.1382
    5.2814    5.9076    5.9994    6.1771    6.9839    7.0551    7.2381    7.8883    7.9598    8.0509
    8.3953    8.4233    8.5902    8.9995    9.1161    9.2607    9.4985    9.6747    9.9172   10.0727
   10.2104   10.3594   10.5053   10.5464   10.8482   11.1033   11.2324   11.3384   11.5543   11.8509
   11.9066   12.0713   12.1231   12.3931   12.5379   12.6836   12.8112   13.0321   13.1992   13.9051
   14.1029   14.3809   14.5920   15.1669   15.1993   15.7424   15.8777   16.6002   16.6763   16.7179
   17.2547   17.5144   17.6474   17.7772   18.1447   18.2311   18.3489   18.4355   18.5797   18.6458
   18.7883   18.9583   19.1762   19.3192   19.3686   19.5769   19.7439   19.8840   20.1026   20.3085
   20.4006   20.5154   20.7404   20.9534   21.2510   21.4548   21.5632   21.7090   22.0981   22.2444
   22.4858   22.7645   23.0955   23.4968   23.8262   23.9574   24.1666   25.0783   25.3859   25.6321
   25.9904   26.2754   26.4157   27.1306   27.4867   27.9229   29.0896   29.2383   29.5504   30.2040
   30.6133   31.5385   31.9050   32.3300   32.4954   33.1841   34.3146   34.3874   34.7744   35.1556
   35.5672   35.9810   36.4961   36.9042   37.4987   37.6006   38.4966   38.6578   38.7889   39.1550
   39.6966   40.1288   40.3169   40.7347   41.2194   41.3569   41.4640   42.1294   42.5213   43.2785
   43.4770   44.1012   44.8128   45.1598   45.5731   45.9466   46.7402   47.2039   47.6033   48.2830
   48.9337   49.3766   49.9499   50.4573   51.0947   51.6635   52.0250   52.3911   52.7766   53.1692
   53.3658   53.9265   54.3940   54.4944   55.1732   55.6219   56.0040   56.6364   57.0020   57.1098
   57.9677   58.2843   58.3973   58.8622   59.5897   60.2037   60.6533   61.2670   61.6163   62.5658
   63.6024   64.1763   65.0282   65.1768   66.4017   67.3758   67.5154   68.3126   69.6567   69.9965
   71.3894   73.4405   73.7095   74.3344   74.7336   75.0733   76.0892   76.9406   77.6495   79.3234
   80.3204   81.3109   82.7886   84.3965   87.1188   88.2234   89.7580   91.1784   94.0504   99.0837
  100.2860  101.7429  102.8593  104.4000  107.4944  112.3527  116.1357  118.9890
siesta: Fermi energy =      -4.215142 eV

siesta: PDOS info
siesta: E1 -- E2, sigma [eV], nhist:  -10.000 --   10.000    0.200 500

siesta: Program's energy decomposition (eV):
siesta: Ebs     =      -956.053891
siesta: Eions   =      4635.983882
siesta: Ena     =       953.363701
siesta: Ekin    =      2055.974934
siesta: Enl     =      -285.908323
siesta: Eso     =         0.000000
siesta: Edftu   =         0.000000
siesta: DEna    =       -60.191579
siesta: DUscf   =         7.421855
siesta: DUext   =         0.000000
siesta: Exc     =     -1038.589035
siesta: eta*DQ  =         0.000000
siesta: Emadel  =         0.000000
siesta: Emeta   =         0.000000
siesta: Emolmec =         0.000000
siesta: Ekinion =         0.873518
siesta: Eharris =     -3003.038811
siesta: Etot    =     -3003.038811
siesta: FreeEng =     -3003.038811

siesta: Final energy (eV):
siesta:  Band Struct. =    -956.053891
siesta:       Kinetic =    2055.974934
siesta:       Hartree =    7646.969920
siesta:       Edftu   =       0.000000
siesta:       Eso     =       0.000000
siesta:    Ext. field =       0.000000
siesta:   Exch.-corr. =   -1038.589035
siesta:  Ion-electron =  -17105.866384
siesta:       Ion-ion =    5437.598236
siesta:       Ekinion =       0.873518
siesta:         Total =   -3003.038811
siesta:         Fermi =      -4.215142

siesta: Atomic forces (eV/Ang):
siesta:      1    0.309042    0.109718   -0.192983
siesta:      2    1.415798    0.032504   -0.078490
siesta:      3   -2.219281    1.072239   -0.424145
siesta:      4    1.727628    1.359726    1.427619
siesta:      5   -0.915436   -1.883311   -0.051728
siesta:      6   -2.416598    0.028794   -0.362588
siesta:      7    3.540364    4.126587   -0.072319
siesta:      8   -3.188566   -1.526963    0.502031
siesta:      9   -1.602487   -1.217527   -0.134456
siesta:     10    0.257815    4.057293    1.430172
siesta:     11    1.045501   -0.991128   -0.892194
siesta:     12   -1.883644    1.455879    0.589310
siesta:     13    0.970645   -0.930939   -0.848713
siesta:     14   -2.558654    0.063692   -1.341523
siesta:     15   -1.016907    1.823511    3.936691
siesta:     16    1.068291    0.191372    0.682339
siesta:     17    0.045178   -0.073402    0.442489
siesta:     18   -0.576561   -0.045190   -0.234058
siesta:     19    0.221014   -0.419954    0.363920
siesta:     20    0.745361   -0.831124    0.170787
siesta:     21    0.110014    0.137430    0.020042
siesta:     22   -0.572742   -1.044518    0.170313
siesta:     23    0.967798   -0.366768   -0.167106
siesta:     24    1.161676   -2.158320   -0.674975
siesta:     25    0.953099   -2.526217   -0.358098
siesta:     26    1.885081   -0.330584   -2.293715
siesta:     27   -0.193979   -0.546748   -0.046547
siesta:     28   -0.304998   -0.332938   -0.721472
siesta: ----------------------------------------
siesta:    Tot   -1.025551   -0.766886    0.840607

siesta: Stress tensor (static) (eV/Ang**3):
siesta:     0.001148    0.002161    0.001653
siesta:     0.002161   -0.000041   -0.000586
siesta:     0.001653   -0.000586   -0.000022

siesta: Cell volume =       2883.087951 Ang**3

siesta: Pressure (static):
siesta:                Solid            Molecule  Units
siesta:          -0.00000394         -0.00000050  Ry/Bohr**3
siesta:          -0.00036147         -0.00004558  eV/Ang**3
siesta:          -0.57913835         -0.07303281  kBar
(Free)E+ p_basis*V_orbitals  =       -2996.436190
(Free)Eharris+ p_basis*V_orbitals  =       -2996.436190
     spin moment: S , {S} =   -0.00000       0.0       0.0  -0.00000

siesta: Electric dipole (a.u.)  =   -0.296044   -0.298600   -0.306767
siesta: Electric dipole (Debye) =   -0.752468   -0.758966   -0.779724

cite: Please see "siesta.bib" for an exhaustive BiBTeX file.
cite: This calculation has made use of the following articles.
cite: Articles are encouraged to be cited in a published work.
        Primary SIESTA paper
          DOI: www.doi.org/10.1088/0953-8984/14/11/302


timer: Elapsed wall time (sec) =    2010.747
timer: CPU execution times (sec):

Routine            Calls   Time/call    Tot.time        %
siesta                 1    2010.405    2010.405   100.00
Setup                  1       0.249       0.249     0.01
bands                  3       2.091       6.273     0.31
KSV_init               1       0.000       0.000     0.00
IterGeom             250       8.009    2002.140    99.59
state_init           250       0.041      10.247     0.51
hsparse              250       0.004       0.975     0.05
overlap              250       0.028       6.933     0.34
Setup_H0             250       0.875     218.687    10.88
naefs                500       0.000       0.100     0.00
MolMec               500       0.000       0.001     0.00
kinefsm              500       0.024      12.181     0.61
nlefsm               500       0.120      60.012     2.99
DHSCF_Init           250       0.731     182.646     9.09
DHSCF1               250       0.009       2.281     0.11
INITMESH             250       0.000       0.002     0.00
DHSCF2               250       0.721     180.363     8.97
REMESH               250       0.099      24.750     1.23
REORD              14370       0.001      18.379     0.91
PHION                250       0.507     126.819     6.31
COMM_BSC           20742       0.001      21.907     1.09
POISON              2718       0.046     123.979     6.17
fft                 5436       0.017      90.984     4.53
IterSCF             1967       0.699    1374.796    68.38
setup_H             2217       0.504    1118.472    55.63
DHSCF               2468       0.595    1469.571    73.10
DHSCF3              2468       0.502    1239.409    61.65
rhoofd              2468       0.177     435.696    21.67
XC                  2468       0.099     244.882    12.18
GXC-CellXC          2468       0.087     215.940    10.74
cellXC              2468       0.087     215.910    10.74
vmat                2467       0.152     375.457    18.68
compute_dm          1967       0.126     248.321    12.35
diagon              1967       0.126     247.070    12.29
r-eigvec            3934       0.049     191.402     9.52
r-buildHS           3934       0.000       1.578     0.08
rdiag               3936       0.048     189.897     9.45
rdiag1              3936       0.001       5.150     0.26
rdiag2              3936       0.004      16.463     0.82
rdiag3              3936       0.029     114.599     5.70
rdiag4              3936       0.014      53.210     2.65
r-buildD            1967       0.028      54.729     2.72
MIXER               1717       0.002       2.979     0.15
PostSCF              250       1.590     397.595    19.78
DHSCF4               250       0.921     230.151    11.45
dfscf                250       0.838     209.599    10.43
overfsm              250       0.021       5.142     0.26
state_analysis       250       0.002       0.454     0.02
siesta_move          250       0.001       0.198     0.01
Analysis               1       8.012       8.012     0.40
c-eigval             152       0.041       6.226     0.31
c-buildHS            152       0.002       0.301     0.01
cdiag                152       0.039       5.924     0.29
cdiag1               152       0.005       0.744     0.04
cdiag2               152       0.016       2.430     0.12
cdiag3               152       0.018       2.748     0.14
pdos                   1       1.331       1.331     0.07
optical                1       0.000       0.000     0.00
  

>> End of run:   6-DEC-2020   9:42:23
Job completed
