Siesta Version  : master-post-4.1-266
Architecture    : unknown
Compiler version: GNU Fortran (Ubuntu 9.3.0-17ubuntu1~20.04) 9.3.0
Compiler flags  : gfortran -O2 -fPIC -ftree-vectorize
PP flags        : -DFC_HAVE_ABORT -DSIESTA__DIAG_2STAGE -DSIESTA__MRRR
Libraries       : libsiestaLAPACK.a libsiestaBLAS.a
Directory       : /home/colinw/siesta/mixture_simulations/PAH1laPAH1laPAH2laPAH3laPAH4
SERIAL version

* Running in serial mode
>> Start of run:  15-DEC-2020  16:42:59

                           ***********************       
                           *  WELCOME TO SIESTA  *       
                           ***********************       

reinit: Reading from standard input
reinit: Dumped input in INPUT_TMP.47362
************************** Dump of input data file ****************************
NumberOfAtoms 181
SpinPolarized yes
#FixSpin .true.
#TotalSpin
NumberOfSpecies 4
MD.TypeOfRun  nose
MD.FinalTimeStep 10
MD.LengthTimeStep 1.0  fs
MD.InitialTemperature 300 K
MD.TargetTemperature  300  K
%block ChemicalSpeciesLabel
1  6  C
2  7  N
3  1  H
4  8  O
%endblock ChemicalSpeciesLabel
PAO.BasisSize szp
 PAO.EnergyShift 0.02 Ry
MeshCutoff          100 Ry
MaxSCFIterations    100
DM.NumberPulay       3
DM.Tolerance         1e-3
WriteDenchar	.true.
%block ProjectedDensityOfStates
-10.0 10.0 0.200 500 eV
%endblock ProjectedDensityOfStates
NetCharge 0.00
%block BandLines
1  1.000  1.000 1.000  L
20 0.00   0.00   0.00  \Gamma
25 2.00   0.000  0.00  X
30 2.00   2.00   2.00  \Gamma
%endblock BandLines
LongOutput .true.
WriteCoorXmol .true.
LatticeConstant 1 Ang
%block LatticeVectors
  37.558519 0.0 0.0
  0.0 37.186526 0.0
  0.0 0.0 36.512816
%endblock LatticeVectors
#UseSaveData .true.
%block kgrid_Monkhorst_Pack
1 0 0 0.0
 0 1 0 0.0
 0 0 1 0.0
%endblock kgrid_Monkhorst_Pack
WriteMDXmol .true.
AtomicCoordinatesFormat Ang
%block AtomicCoordinatesAndAtomicSpecies
18.401728  6.553524 7.405508  1
19.630895  7.390927 7.714480  1
20.972645  6.667655 7.475719  1
22.225159  7.496034 7.769273  1
22.087573  8.825190 8.222217  1
23.227407  9.552846 8.566875  1
23.318976  10.827453 9.084811  2
22.527882  11.408000 9.299638  3
24.627892  11.108455 9.364123  1
25.162955  12.267093 10.056005  1
24.498172  13.464921 10.179021  1
25.002269  14.537052 10.819847  2
26.208013  14.436444 11.421191  1
26.732210  15.554439 12.092951  1
26.031182  16.910487 11.980542  1
25.619434  17.449493 13.358162  1
26.869562  17.941335 11.179743  1
27.172129  17.556621 9.717890  1
25.940857  17.405433 8.833964  1
27.931217  15.437174 12.824886  1
28.642440  14.245139 12.840664  1
28.166199  13.156702 12.114961  1
26.954303  13.235217 11.390406  1
26.447146  12.149589 10.631587  1
27.201293  10.825515 10.478030  1
26.856698  10.029086 9.195532  1
25.386640  10.026926 8.974568  1
24.511568  9.041135 8.456124  1
24.667675  7.746651 7.941175  1
23.529563  6.968379 7.615893  1
23.803301  5.559927 7.138569  1
23.885540  4.555569 8.298664  1
24.141755  3.097858 7.850766  1
23.007074  2.608180 6.947479  1
25.531310  2.954139 7.198471  1
25.873451  1.541018 6.750668  1
17.502835  7.096051 7.722343  3
18.422297  5.598339 7.936600  3
18.312319  6.362855 6.332150  3
19.567257  7.702190 8.764760  3
19.579696  8.297896 7.099202  3
21.009060  6.333963 6.432175  3
20.994593  5.776796 8.116074  3
21.118599  9.290172 8.341078  3
23.515054  13.626191 9.746571  3
25.083060  16.794235 11.444983  3
26.475200  17.691681 13.995988  3
25.004029  16.713288 13.889211  3
25.017253  18.358470 13.247961  3
27.827894  18.117631 11.685889  3
26.344678  18.905171 11.177855  3
27.756603  16.630680 9.683356  3
27.809922  18.334408 9.277844  3
25.227627  16.686868 9.240354  3
26.231549  17.045552 7.840827  3
25.425549  18.362276 8.705316  3
28.323107  16.286167 13.381834  3
29.565764  14.161160 13.399578  3
28.747899  12.242664 12.143981  3
26.972892  10.212496 11.359863  3
28.282943  10.997263 10.457735  3
27.254420  9.012452 9.272983  3
27.338043  10.507665 8.332478  3
25.667989  7.337214 7.824394  3
24.750432  5.564411 6.584426  3
23.045597  5.275008 6.405272  3
22.954221  4.587974 8.878326  3
24.679178  4.858789 8.995571  3
24.133294  2.474358 8.756012  3
22.965459  3.170924 6.010563  3
22.041525  2.717024 7.453499  3
23.122180  1.552569 6.688878  3
26.294169  3.281808 7.916284  3
25.616115  3.608999 6.325818  3
25.768767  0.826256 7.571826  3
26.908827  1.506068 6.395974  3
25.236330  1.220705 5.920895  3
9.455861  25.487537 28.140802  1
9.074767  26.896086 27.777375  1
10.031004  27.908031 27.895293  1
9.676244  29.197366 27.550316  1
8.455924  29.545846 27.096981  2
7.529879  28.580087 26.973903  1
6.277793  28.930201 26.485963  1
5.261030  27.988065 26.315808  1
5.489763  26.662663 26.654703  1
6.736446  26.284752 27.151956  1
7.778943  27.228854 27.308867  1
10.508842  25.418537 28.434633  3
9.314295  24.821985 27.283128  3
8.853346  25.134863 28.983982  3
11.037205  27.701605 28.244216  3
10.389852  30.012782 27.626397  3
6.091439  29.968812 26.222859  3
4.297304  28.295901 25.919021  3
4.704441  25.921877 26.529417  3
6.889376  25.240596 27.411594  3
25.850239  19.814665 3.471303  1
26.646421  21.028366 3.111791  1
27.160665  21.106749 1.854863  2
27.885374  22.187484 1.492432  1
28.163539  23.265363 2.316361  1
27.644851  23.209521 3.617497  1
27.697600  24.085167 4.749148  1
28.290838  25.341416 4.992077  1
28.145258  25.940060 6.249085  1
27.422062  25.307197 7.257267  1
26.824234  24.062336 7.041756  1
26.980578  23.478786 5.779005  1
26.511338  22.282364 5.292470  2
25.955777  21.630153 5.825799  3
26.897843  22.091885 3.985709  1
25.789296  19.121100 2.627011  3
24.833114  20.102524 3.754268  3
26.318507  19.293295 4.311786  3
28.256233  22.165165 0.471166  3
28.751717  24.104247 1.966696  3
28.856606  25.843006 4.212721  3
28.601863  26.908470 6.438391  3
27.320028  25.788233 8.227509  3
26.261996  23.572472 7.829975  3
19.015413  4.052034 3.954269  1
17.755632  4.508390 3.282836  1
16.768522  3.601719 2.929868  1
15.547957  4.074931 2.437734  1
14.514789  3.170122 2.137350  1
13.246874  3.625829 1.742658  1
12.170627  2.766258 1.504754  1
10.924008  3.172894 1.166954  2
10.738161  4.501015 1.045895  1
11.738583  5.440856 1.230591  1
13.019529  5.002024 1.592696  1
14.073168  5.902864 1.839673  1
15.347737  5.463073 2.283136  1
16.434845  6.306538 2.610658  1
16.376549  7.803744 2.526428  1
17.607950  5.838111 3.113993  2
19.092658  2.960601 3.977987  3
19.026073  4.415830 4.987282  3
19.889953  4.447532 3.429974  3
16.931571  2.538636 3.078767  3
14.683191  2.102760 2.250600  3
12.279158  1.689395 1.600684  3
9.726613  4.806609 0.792295  3
11.513901  6.496395 1.114620  3
13.877580  6.962442 1.711904  3
15.574557  8.178528 1.888164  3
17.314550  8.185589 2.107755  3
16.250663  8.222293 3.530405  3
1.082026  26.391363 11.449556  1
1.846277  26.419149 10.160558  1
2.719300  25.397417 9.816041  1
3.431752  25.441614 8.594731  1
4.346817  24.435262 8.162001  1
4.601087  23.316679 8.938218  4
5.048212  24.494325 6.941528  1
5.903974  23.507703 6.583072  2
6.556335  23.598169 5.409106  1
6.406713  24.650061 4.532485  1
5.531528  25.679382 4.878015  1
5.362325  26.833096 3.924743  1
4.830575  25.607924 6.111101  1
3.927083  26.607926 6.532862  1
3.218777  26.554583 7.755312  1
2.308666  27.550656 8.186803  1
1.977852  28.790538 7.402658  1
1.638394  27.482475 9.364687  2
1.303237  25.494252 12.035640  3
0.007245  26.408148 11.243717  3
1.341480  27.266501 12.053379  3
2.830012  24.575466 10.513262  3
4.096325  23.332941 9.758176  3
7.224970  22.771561 5.187809  3
6.963124  24.661008 3.601849  3
5.982003  26.712936 3.030092  3
5.660462  27.770479 4.405723  3
4.320822  26.903516 3.594227  3
3.777121  27.456720 5.875012  3
2.489568  28.876716 6.444452  3
2.240358  29.674544 7.993164  3
0.902128  28.814938 7.199118  3
 %endblock AtomicCoordinatesAndAtomicSpecies
************************** End of input data file *****************************

reinit: -----------------------------------------------------------------------
reinit: System Name: 
reinit: -----------------------------------------------------------------------
reinit: System Label: siesta
reinit: -----------------------------------------------------------------------

initatom: Reading input for the pseudopotentials and atomic orbitals ----------
Species number:   1 Atomic number:    6 Label: C
Species number:   2 Atomic number:    7 Label: N
Species number:   3 Atomic number:    1 Label: H
Species number:   4 Atomic number:    8 Label: O

Ground state valence configuration:   2s02  2p02
Reading pseudopotential information in formatted form from C.psf

Valence configuration for pseudopotential generation:
2s( 2.00) rc: 1.54
2p( 2.00) rc: 1.54
3d( 0.00) rc: 1.54
4f( 0.00) rc: 1.54
Ground state valence configuration:   2s02  2p03
Reading pseudopotential information in formatted form from N.psf

Valence configuration for pseudopotential generation:
2s( 2.00) rc: 1.48
2p( 3.00) rc: 1.48
3d( 0.00) rc: 1.48
4f( 0.00) rc: 1.48
Ground state valence configuration:   1s01
Reading pseudopotential information in formatted form from H.psf

Valence configuration for pseudopotential generation:
1s( 1.00) rc: 1.31
2p( 0.00) rc: 1.31
3d( 0.00) rc: 0.37
4f( 0.00) rc: 1.31
Ground state valence configuration:   2s02  2p04
Reading pseudopotential information in formatted form from O.psf

Valence configuration for pseudopotential generation:
2s( 2.00) rc: 1.47
2p( 4.00) rc: 1.47
3d( 0.00) rc: 1.47
4f( 0.00) rc: 1.47
For C, standard SIESTA heuristics set lmxkb to 3
 (one more than the basis l, including polarization orbitals).
Use PS.lmax or PS.KBprojectors blocks to override.
For N, standard SIESTA heuristics set lmxkb to 3
 (one more than the basis l, including polarization orbitals).
Use PS.lmax or PS.KBprojectors blocks to override.
For H, standard SIESTA heuristics set lmxkb to 2
 (one more than the basis l, including polarization orbitals).
Use PS.lmax or PS.KBprojectors blocks to override.
For O, standard SIESTA heuristics set lmxkb to 3
 (one more than the basis l, including polarization orbitals).
Use PS.lmax or PS.KBprojectors blocks to override.

<basis_specs>
===============================================================================
C                    Z=   6    Mass=  12.010        Charge= 0.17977+309
Lmxo=1 Lmxkb= 3    BasisType=split      Semic=F
L=0  Nsemic=0  Cnfigmx=2
          i=1  nzeta=1  polorb=0  (2s)
            splnorm:   0.15000    
               vcte:    0.0000    
               rinn:    0.0000    
               qcoe:    0.0000    
               qyuk:    0.0000    
               qwid:   0.10000E-01
                rcs:    0.0000    
            lambdas:    1.0000    
L=1  Nsemic=0  Cnfigmx=2
          i=1  nzeta=1  polorb=1  (2p)
            splnorm:   0.15000    
               vcte:    0.0000    
               rinn:    0.0000    
               qcoe:    0.0000    
               qyuk:    0.0000    
               qwid:   0.10000E-01
                rcs:    0.0000    
            lambdas:    1.0000    
-------------------------------------------------------------------------------
L=0  Nkbl=1  erefs: 0.17977+309
L=1  Nkbl=1  erefs: 0.17977+309
L=2  Nkbl=1  erefs: 0.17977+309
L=3  Nkbl=1  erefs: 0.17977+309
===============================================================================
</basis_specs>

atom: Called for C                     (Z =   6)

read_vps: Pseudopotential generation method:
read_vps: ATM3      Troullier-Martins                       
Valence charge for ps generation:    4.00000

read_vps: Pseudopotential includes a core correction:
read_vps: Pseudo-core for xc-correction

xc_check: Exchange-correlation functional:
xc_check: Ceperley-Alder
xc_check: WARNING: Pseudopotential generated with GGA PBE functional
V l=0 = -2*Zval/r beyond r=  1.5227
V l=1 = -2*Zval/r beyond r=  1.5227
V l=2 = -2*Zval/r beyond r=  1.5227
V l=3 = -2*Zval/r beyond r=  1.5038
All V_l potentials equal beyond r=  1.5227
This should be close to max(r_c) in ps generation
All pots = -2*Zval/r beyond r=  1.5227

VLOCAL1: 99.0% of the norm of Vloc inside     18.722 Ry
VLOCAL1: 99.9% of the norm of Vloc inside     42.668 Ry
atom: Maximum radius for 4*pi*r*r*local-pseudopot. charge    1.83678
atom: Maximum radius for r*vlocal+2*Zval:    1.58088

KBgen: Kleinman-Bylander projectors: 
GHOST: No ghost state for L =  0
   l= 0   rc=  1.704034   el= -0.998584   Ekb=  5.327875   kbcos=  0.314897
GHOST: No ghost state for L =  1
   l= 1   rc=  1.704034   el= -0.383998   Ekb= -3.785479   kbcos= -0.363289
GHOST: No ghost state for L =  2
   l= 2   rc=  1.791422   el=  0.002326   Ekb= -0.971263   kbcos= -0.009325
GHOST: No ghost state for L =  3
   l= 3   rc=  1.859892   el=  0.003420   Ekb= -0.399672   kbcos= -0.001232

KBgen: Total number of  Kleinman-Bylander projectors:   16
atom: -------------------------------------------------------------------------

atom: SANKEY-TYPE ORBITALS:

SPLIT: Orbitals with angular momentum L= 0

SPLIT: Basis orbitals for state 2s

SPLIT: PAO cut-off radius determined from an
SPLIT: energy shift=  0.020000 Ry

   izeta = 1
                 lambda =    1.000000
                     rc =    4.191849
                 energy =   -0.980459
                kinetic =    0.881507
    potential(screened) =   -1.861966
       potential(ionic) =   -5.449625

SPLIT: Orbitals with angular momentum L= 1

SPLIT: Basis orbitals for state 2p

SPLIT: PAO cut-off radius determined from an
SPLIT: energy shift=  0.020000 Ry

   izeta = 1
                 lambda =    1.000000
                     rc =    4.993604
                 energy =   -0.366127
                kinetic =    2.463190
    potential(screened) =   -2.829316
       potential(ionic) =   -6.291180

POLgen: Perturbative polarization orbital with L=  2

POLgen: Polarization orbital for state 2p

   izeta = 1
                     rc =    4.993604
                 energy =    1.232619
                kinetic =    2.527283
    potential(screened) =   -1.294664
       potential(ionic) =   -4.203101
atom: Total number of Sankey-type orbitals:  9

atm_pop: Valence configuration (for local Pseudopot. screening):
 2s( 2.00)                                                            
 2p( 2.00)                                                            
Vna: chval, zval:    4.00000   4.00000

Vna:  Cut-off radius for the neutral-atom potential:   4.993604
comcore: Pseudo-core radius Rcore=  1.791422

atom: _________________________________________________________________________

<basis_specs>
===============================================================================
N                    Z=   7    Mass=  14.010        Charge= 0.17977+309
Lmxo=1 Lmxkb= 3    BasisType=split      Semic=F
L=0  Nsemic=0  Cnfigmx=2
          i=1  nzeta=1  polorb=0  (2s)
            splnorm:   0.15000    
               vcte:    0.0000    
               rinn:    0.0000    
               qcoe:    0.0000    
               qyuk:    0.0000    
               qwid:   0.10000E-01
                rcs:    0.0000    
            lambdas:    1.0000    
L=1  Nsemic=0  Cnfigmx=2
          i=1  nzeta=1  polorb=1  (2p)
            splnorm:   0.15000    
               vcte:    0.0000    
               rinn:    0.0000    
               qcoe:    0.0000    
               qyuk:    0.0000    
               qwid:   0.10000E-01
                rcs:    0.0000    
            lambdas:    1.0000    
-------------------------------------------------------------------------------
L=0  Nkbl=1  erefs: 0.17977+309
L=1  Nkbl=1  erefs: 0.17977+309
L=2  Nkbl=1  erefs: 0.17977+309
L=3  Nkbl=1  erefs: 0.17977+309
===============================================================================
</basis_specs>

atom: Called for N                     (Z =   7)

read_vps: Pseudopotential generation method:
read_vps: ATM3      Troullier-Martins                       
Valence charge for ps generation:    5.00000

read_vps: Pseudopotential includes a core correction:
read_vps: Pseudo-core for xc-correction

xc_check: Exchange-correlation functional:
xc_check: Ceperley-Alder
xc_check: WARNING: Pseudopotential generated with GGA PBE functional
V l=0 = -2*Zval/r beyond r=  1.4606
V l=1 = -2*Zval/r beyond r=  1.4606
V l=2 = -2*Zval/r beyond r=  1.4606
V l=3 = -2*Zval/r beyond r=  1.4606
All V_l potentials equal beyond r=  1.4606
This should be close to max(r_c) in ps generation
All pots = -2*Zval/r beyond r=  1.4606

VLOCAL1: 99.0% of the norm of Vloc inside     20.347 Ry
VLOCAL1: 99.9% of the norm of Vloc inside     46.372 Ry
atom: Maximum radius for 4*pi*r*r*local-pseudopot. charge    1.76189
atom: Maximum radius for r*vlocal+2*Zval:    1.53550

KBgen: Kleinman-Bylander projectors: 
GHOST: No ghost state for L =  0
   l= 0   rc=  1.634559   el= -1.348537   Ekb=  5.297520   kbcos=  0.333054
GHOST: No ghost state for L =  1
   l= 1   rc=  1.614250   el= -0.512415   Ekb= -5.262296   kbcos= -0.428933
GHOST: No ghost state for L =  2
   l= 2   rc=  1.718383   el=  0.002346   Ekb= -1.271998   kbcos= -0.007619
GHOST: No ghost state for L =  3
   l= 3   rc=  1.761893   el=  0.003449   Ekb= -0.494630   kbcos= -0.001017

KBgen: Total number of  Kleinman-Bylander projectors:   16
atom: -------------------------------------------------------------------------

atom: SANKEY-TYPE ORBITALS:

SPLIT: Orbitals with angular momentum L= 0

SPLIT: Basis orbitals for state 2s

SPLIT: PAO cut-off radius determined from an
SPLIT: energy shift=  0.020000 Ry

   izeta = 1
                 lambda =    1.000000
                     rc =    3.683980
                 energy =   -1.330014
                kinetic =    1.203086
    potential(screened) =   -2.533100
       potential(ionic) =   -8.093205

SPLIT: Orbitals with angular momentum L= 1

SPLIT: Basis orbitals for state 2p

SPLIT: PAO cut-off radius determined from an
SPLIT: energy shift=  0.020000 Ry

   izeta = 1
                 lambda =    1.000000
                     rc =    4.388595
                 energy =   -0.493943
                kinetic =    3.501321
    potential(screened) =   -3.995264
       potential(ionic) =   -9.374806

POLgen: Perturbative polarization orbital with L=  2

POLgen: Polarization orbital for state 2p

   izeta = 1
                     rc =    4.388595
                 energy =    1.759924
                kinetic =    3.542120
    potential(screened) =   -1.782196
       potential(ionic) =   -6.226799
atom: Total number of Sankey-type orbitals:  9

atm_pop: Valence configuration (for local Pseudopot. screening):
 2s( 2.00)                                                            
 2p( 3.00)                                                            
Vna: chval, zval:    5.00000   5.00000

Vna:  Cut-off radius for the neutral-atom potential:   4.388595
comcore: Pseudo-core radius Rcore=  1.554824

atom: _________________________________________________________________________

<basis_specs>
===============================================================================
H                    Z=   1    Mass=  1.0100        Charge= 0.17977+309
Lmxo=0 Lmxkb= 2    BasisType=split      Semic=F
L=0  Nsemic=0  Cnfigmx=1
          i=1  nzeta=1  polorb=1  (1s)
            splnorm:   0.15000    
               vcte:    0.0000    
               rinn:    0.0000    
               qcoe:    0.0000    
               qyuk:    0.0000    
               qwid:   0.10000E-01
                rcs:    0.0000    
            lambdas:    1.0000    
-------------------------------------------------------------------------------
L=0  Nkbl=1  erefs: 0.17977+309
L=1  Nkbl=1  erefs: 0.17977+309
L=2  Nkbl=1  erefs: 0.17977+309
===============================================================================
</basis_specs>

atom: Called for H                     (Z =   1)

read_vps: Pseudopotential generation method:
read_vps: ATM3      Troullier-Martins                       
Valence charge for ps generation:    1.00000

xc_check: Exchange-correlation functional:
xc_check: Ceperley-Alder
xc_check: WARNING: Pseudopotential generated with GGA PBE functional
V l=0 = -2*Zval/r beyond r=  1.2977
V l=1 = -2*Zval/r beyond r=  1.2815
V l=2 = -2*Zval/r beyond r=  1.2656
All V_l potentials equal beyond r=  1.2977
This should be close to max(r_c) in ps generation
All pots = -2*Zval/r beyond r=  1.2977

VLOCAL1: 99.0% of the norm of Vloc inside     25.776 Ry
VLOCAL1: 99.9% of the norm of Vloc inside     58.745 Ry
atom: Maximum radius for 4*pi*r*r*local-pseudopot. charge    1.52711
atom: Maximum radius for r*vlocal+2*Zval:    1.28155

KBgen: Kleinman-Bylander projectors: 
GHOST: No ghost state for L =  0
   l= 0   rc=  1.434438   el= -0.456815   Ekb= -1.960338   kbcos= -0.349997
GHOST: No ghost state for L =  1
   l= 1   rc=  1.508111   el=  0.001431   Ekb= -0.423993   kbcos= -0.025386
GHOST: No ghost state for L =  2
   l= 2   rc=  1.546352   el=  0.002365   Ekb= -0.376562   kbcos= -0.002012

KBgen: Total number of  Kleinman-Bylander projectors:    9
atom: -------------------------------------------------------------------------

atom: SANKEY-TYPE ORBITALS:

SPLIT: Orbitals with angular momentum L= 0

SPLIT: Basis orbitals for state 1s

SPLIT: PAO cut-off radius determined from an
SPLIT: energy shift=  0.020000 Ry

   izeta = 1
                 lambda =    1.000000
                     rc =    4.828263
                 energy =   -0.438372
                kinetic =    0.921576
    potential(screened) =   -1.359947
       potential(ionic) =   -1.906664

POLgen: Perturbative polarization orbital with L=  1

POLgen: Polarization orbital for state 1s

   izeta = 1
                     rc =    4.828263
                 energy =    0.711580
                kinetic =    1.391494
    potential(screened) =   -0.679914
       potential(ionic) =   -1.168115
atom: Total number of Sankey-type orbitals:  4

atm_pop: Valence configuration (for local Pseudopot. screening):
 1s( 1.00)                                                            
Vna: chval, zval:    1.00000   1.00000

Vna:  Cut-off radius for the neutral-atom potential:   4.828263

atom: _________________________________________________________________________

<basis_specs>
===============================================================================
O                    Z=   8    Mass=  16.000        Charge= 0.17977+309
Lmxo=1 Lmxkb= 3    BasisType=split      Semic=F
L=0  Nsemic=0  Cnfigmx=2
          i=1  nzeta=1  polorb=0  (2s)
            splnorm:   0.15000    
               vcte:    0.0000    
               rinn:    0.0000    
               qcoe:    0.0000    
               qyuk:    0.0000    
               qwid:   0.10000E-01
                rcs:    0.0000    
            lambdas:    1.0000    
L=1  Nsemic=0  Cnfigmx=2
          i=1  nzeta=1  polorb=1  (2p)
            splnorm:   0.15000    
               vcte:    0.0000    
               rinn:    0.0000    
               qcoe:    0.0000    
               qyuk:    0.0000    
               qwid:   0.10000E-01
                rcs:    0.0000    
            lambdas:    1.0000    
-------------------------------------------------------------------------------
L=0  Nkbl=1  erefs: 0.17977+309
L=1  Nkbl=1  erefs: 0.17977+309
L=2  Nkbl=1  erefs: 0.17977+309
L=3  Nkbl=1  erefs: 0.17977+309
===============================================================================
</basis_specs>

atom: Called for O                     (Z =   8)

read_vps: Pseudopotential generation method:
read_vps: ATM3      Troullier-Martins                       
Valence charge for ps generation:    6.00000

read_vps: Pseudopotential includes a core correction:
read_vps: Pseudo-core for xc-correction

xc_check: Exchange-correlation functional:
xc_check: Ceperley-Alder
xc_check: WARNING: Pseudopotential generated with GGA PBE functional
V l=0 = -2*Zval/r beyond r=  1.4482
V l=1 = -2*Zval/r beyond r=  1.4482
V l=2 = -2*Zval/r beyond r=  1.4482
V l=3 = -2*Zval/r beyond r=  1.4482
All V_l potentials equal beyond r=  1.4482
This should be close to max(r_c) in ps generation
All pots = -2*Zval/r beyond r=  1.4482

VLOCAL1: 99.0% of the norm of Vloc inside     20.696 Ry
VLOCAL1: 99.9% of the norm of Vloc inside     47.167 Ry
atom: Maximum radius for 4*pi*r*r*local-pseudopot. charge    1.74697
atom: Maximum radius for r*vlocal+2*Zval:    1.52250

KBgen: Kleinman-Bylander projectors: 
GHOST: No ghost state for L =  0
   l= 0   rc=  1.620715   el= -1.738829   Ekb=  4.895054   kbcos=  0.290645
GHOST: No ghost state for L =  1
   l= 1   rc=  1.600578   el= -0.650915   Ekb= -6.916539   kbcos= -0.494696
GHOST: No ghost state for L =  2
   l= 2   rc=  1.703827   el=  0.002386   Ekb= -1.538961   kbcos= -0.006789
GHOST: No ghost state for L =  3
   l= 3   rc=  1.746967   el=  0.003508   Ekb= -0.568530   kbcos= -0.000966

KBgen: Total number of  Kleinman-Bylander projectors:   16
atom: -------------------------------------------------------------------------

atom: SANKEY-TYPE ORBITALS:

SPLIT: Orbitals with angular momentum L= 0

SPLIT: Basis orbitals for state 2s

SPLIT: PAO cut-off radius determined from an
SPLIT: energy shift=  0.020000 Ry

   izeta = 1
                 lambda =    1.000000
                     rc =    3.305093
                 energy =   -1.720120
                kinetic =    1.583509
    potential(screened) =   -3.303629
       potential(ionic) =  -11.248859

SPLIT: Orbitals with angular momentum L= 1

SPLIT: Basis orbitals for state 2p

SPLIT: PAO cut-off radius determined from an
SPLIT: energy shift=  0.020000 Ry

   izeta = 1
                 lambda =    1.000000
                     rc =    3.937239
                 energy =   -0.631844
                kinetic =    4.616405
    potential(screened) =   -5.248250
       potential(ionic) =  -12.927368

POLgen: Perturbative polarization orbital with L=  2

POLgen: Polarization orbital for state 2p

   izeta = 1
                     rc =    3.937239
                 energy =    2.368129
                kinetic =    4.725445
    potential(screened) =   -2.357315
       potential(ionic) =   -8.649185
atom: Total number of Sankey-type orbitals:  9

atm_pop: Valence configuration (for local Pseudopot. screening):
 2s( 2.00)                                                            
 2p( 4.00)                                                            
Vna: chval, zval:    6.00000   6.00000

Vna:  Cut-off radius for the neutral-atom potential:   3.937239
comcore: Pseudo-core radius Rcore=  1.377587

atom: _________________________________________________________________________

prinput: Basis input ----------------------------------------------------------

PAO.BasisType split     

%block ChemicalSpeciesLabel
    1    6 C                       # Species index, atomic number, species label
    2    7 N                       # Species index, atomic number, species label
    3    1 H                       # Species index, atomic number, species label
    4    8 O                       # Species index, atomic number, species label
%endblock ChemicalSpeciesLabel

%block PAO.Basis                 # Define Basis set
C                     2                    # Species label, number of l-shells
 n=2   0   1                         # n, l, Nzeta 
   4.192   
   1.000   
 n=2   1   1 P   1                   # n, l, Nzeta, Polarization, NzetaPol
   4.994   
   1.000   
N                     2                    # Species label, number of l-shells
 n=2   0   1                         # n, l, Nzeta 
   3.684   
   1.000   
 n=2   1   1 P   1                   # n, l, Nzeta, Polarization, NzetaPol
   4.389   
   1.000   
H                     1                    # Species label, number of l-shells
 n=1   0   1 P   1                   # n, l, Nzeta, Polarization, NzetaPol
   4.828   
   1.000   
O                     2                    # Species label, number of l-shells
 n=2   0   1                         # n, l, Nzeta 
   3.305   
   1.000   
 n=2   1   1 P   1                   # n, l, Nzeta, Polarization, NzetaPol
   3.937   
   1.000   
%endblock PAO.Basis

prinput: ----------------------------------------------------------------------

coor:   Atomic-coordinates input format  =     Cartesian coordinates
coor:                                          (in Angstroms)

siesta: Atomic coordinates (Bohr) and species
siesta:     34.77424  12.38437  13.99439  1        1
siesta:     37.09703  13.96683  14.57826  1        2
siesta:     39.63257  12.60005  14.12707  1        3
siesta:     41.99948  14.16546  14.68180  1        4
siesta:     41.73948  16.67720  15.53774  1        5
siesta:     43.89346  18.05227  16.18905  1        6
siesta:     44.06650  20.46093  17.16781  2        7
siesta:     42.57154  21.55800  17.57378  3        8
siesta:     46.53999  20.99195  17.69563  1        9
siesta:     47.55111  23.18146  19.00310  1       10
siesta:     46.29485  25.44502  19.23557  1       11
siesta:     47.24746  27.47106  20.44656  2       12
siesta:     49.52599  27.28094  21.58293  1       13
siesta:     50.51658  29.39364  22.85237  1       14
siesta:     49.19182  31.95620  22.63995  1       15
siesta:     48.41373  32.97478  25.24328  1       16
siesta:     50.77613  33.90422  21.12666  1       17
siesta:     51.34790  33.17722  18.36416  1       18
siesta:     49.02113  32.89151  16.69378  1       19
siesta:     52.78237  29.17204  24.23553  1       20
siesta:     54.12639  26.91942  24.26535  1       21
siesta:     53.22642  24.86257  22.89397  1       22
siesta:     50.93627  25.01095  21.52476  1       23
siesta:     49.97788  22.95940  20.09080  1       24
siesta:     51.40301  20.45727  19.80061  1       25
siesta:     50.75182  18.95223  17.37704  1       26
siesta:     47.97382  18.94815  16.95948  1       27
siesta:     46.32017  17.08528  15.97976  1       28
siesta:     46.61517  14.63905  15.00665  1       29
siesta:     44.46445  13.16833  14.39196  1       30
siesta:     44.98174  10.50674  13.48995  1       31
siesta:     45.13715   8.60878  15.68221  1       32
siesta:     45.62132   5.85411  14.83580  1       33
siesta:     43.47709   4.92875  13.12884  1       34
siesta:     48.24720   5.58252  13.60314  1       35
siesta:     48.89376   2.91210  12.75692  1       36
siesta:     33.07558  13.40960  14.59312  3       37
siesta:     34.81311  10.57933  14.99801  3       38
siesta:     34.60528  12.02406  11.96603  3       39
siesta:     36.97677  14.55504  16.56300  3       40
siesta:     37.00028  15.68076  13.41555  3       41
siesta:     39.70139  11.96946  12.15505  3       42
siesta:     39.67405  10.91657  15.33716  3       43
siesta:     39.90838  17.55589  15.76236  3       44
siesta:     44.43703  25.74978  18.41836  3       45
siesta:     47.40013  31.73652  21.62789  3       46
siesta:     50.03090  33.43245  26.44859  3       47
siesta:     47.25079  31.58355  26.24682  3       48
siesta:     47.27578  34.69249  25.03503  3       49
siesta:     52.58712  34.23737  22.08314  3       50
siesta:     49.78425  35.72561  21.12309  3       51
siesta:     52.45240  31.42744  18.29890  3       52
siesta:     52.55316  34.64702  17.53259  3       53
siesta:     47.67332  31.53362  17.46175  3       54
siesta:     49.57046  32.21144  14.81702  3       55
siesta:     48.04734  34.69969  16.45067  3       56
siesta:     53.52294  30.77641  25.28801  3       57
siesta:     55.87122  26.76072  25.32154  3       58
siesta:     54.32568  23.13529  22.94881  3       59
siesta:     50.97140  19.29883  21.46704  3       60
siesta:     53.44704  20.78182  19.76226  3       61
siesta:     51.50341  17.03107  17.52341  3       62
siesta:     51.66143  19.85662  15.74611  3       63
siesta:     48.50549  13.86533  14.78597  3       64
siesta:     46.77156  10.51522  12.44277  3       65
siesta:     43.54988   9.96832  12.10421  3       66
siesta:     43.37721   8.67002  16.77761  3       67
siesta:     46.63691   9.18178  16.99917  3       68
siesta:     45.60533   4.67586  16.54647  3       69
siesta:     43.39845   5.99218  11.35832  3       70
siesta:     41.65246   5.13443  14.08508  3       71
siesta:     43.69461   2.93393  12.64015  3       72
siesta:     49.68880   6.20172  14.95961  3       73
siesta:     48.40746   6.82002  11.95407  3       74
siesta:     48.69593   1.56140  14.30868  3       75
siesta:     50.85033   2.84606  12.08664  3       76
siesta:     47.68977   2.30680  11.18887  3       77
siesta:     17.86899  48.16448  53.17843  1       78
siesta:     17.14883  50.82626  52.49165  1       79
siesta:     18.95586  52.73856  52.71448  1       80
siesta:     18.28546  55.17505  52.06257  1       81
siesta:     15.97939  55.83358  51.20589  2       82
siesta:     14.22941  54.00856  50.97331  1       83
siesta:     11.86331  54.67018  50.05124  1       84
siesta:      9.94191  52.88980  49.72969  1       85
siesta:     10.37415  50.38515  50.37011  1       86
siesta:     12.73004  49.67100  51.30978  1       87
siesta:     14.70008  51.45510  51.60630  1       88
siesta:     19.85884  48.03409  53.73369  3       89
siesta:     17.60147  46.90677  51.55766  3       90
siesta:     16.73041  47.49803  54.77181  3       91
siesta:     20.85730  52.34847  53.37385  3       92
siesta:     19.63398  56.71596  52.20634  3       93
siesta:     11.51116  56.63287  49.55404  3       94
siesta:      8.12073  53.47152  48.97987  3       95
siesta:      8.89011  48.98527  50.13335  3       96
siesta:     13.01904  47.69783  51.80043  3       97
siesta:     48.84989  37.44431   6.55981  1       98
siesta:     50.35446  39.73787   5.88044  1       99
siesta:     51.32624  39.88599   3.50518  2      100
siesta:     52.69574  41.92828   2.82029  1      101
siesta:     53.22140  43.96518   4.37729  1      102
siesta:     52.24122  43.85966   6.83608  1      103
siesta:     52.34090  45.51439   8.97459  1      104
siesta:     53.46196  47.88835   9.43366  1      105
siesta:     53.18685  49.01963  11.80906  1      106
siesta:     51.82021  47.82369  13.71425  1      107
siesta:     50.69048  45.47124  13.30700  1      108
siesta:     50.98592  44.36849  10.92074  1      109
siesta:     50.09919  42.10758  10.00132  2      110
siesta:     49.04933  40.87508  11.00917  3      111
siesta:     50.82958  41.74763   7.53190  1      112
siesta:     48.73473  36.13366   4.96433  3      113
siesta:     46.92780  37.98828   7.09454  3      114
siesta:     49.73479  36.45906   8.14810  3      115
siesta:     53.39656  41.88611   0.89038  3      116
siesta:     54.33289  45.55044   3.71652  3      117
siesta:     54.53110  48.83622   7.96089  3      118
siesta:     54.04971  50.84966  12.16680  3      119
siesta:     51.62739  48.73272  15.54774  3      120
siesta:     49.62800  44.54553  14.79651  3      121
siesta:     35.93394   7.65724   7.47249  1      122
siesta:     33.55330   8.51963   6.20366  1      123
siesta:     31.68793   6.80627   5.53665  1      124
siesta:     29.38139   7.70051   4.60665  1      125
siesta:     27.42899   5.99066   4.03901  1      126
siesta:     25.03297   6.85183   3.29315  1      127
siesta:     22.99916   5.22747   2.84357  1      128
siesta:     20.64339   5.99590   2.20522  2      129
siesta:     20.29219   8.50569   1.97646  1      130
siesta:     22.18272  10.28173   2.32548  1      131
siesta:     24.60335   9.45246   3.00976  1      132
siesta:     26.59444  11.15480   3.47648  1      133
siesta:     29.00303  10.32372   4.31450  1      134
siesta:     31.05737  11.91763   4.93343  1      135
siesta:     30.94720  14.74694   4.77426  1      136
siesta:     33.27422  11.03244   5.88460  2      137
siesta:     36.07991   5.59473   7.51731  3      138
siesta:     35.95408   8.34471   9.42460  3      139
siesta:     37.58658   8.40462   6.48171  3      140
siesta:     31.99604   4.79733   5.81803  3      141
siesta:     27.74722   3.97364   4.25302  3      142
siesta:     23.20425   3.19250   3.02486  3      143
siesta:     18.38064   9.08318   1.49722  3      144
siesta:     21.75813  12.27641   2.10633  3      145
siesta:     26.22484  13.15711   3.23503  3      146
siesta:     29.43166  15.45518   3.56811  3      147
siesta:     32.71977  15.46853   3.98308  3      148
siesta:     30.70931  15.53789   6.67150  3      149
siesta:      2.04473  49.87247  21.63653  1      150
siesta:      3.48896  49.92498  19.20068  1      151
siesta:      5.13873  47.99418  18.54964  1      152
siesta:      6.48507  48.07770  16.24169  1      153
siesta:      8.21430  46.17597  15.42395  1      154
siesta:      8.69480  44.06216  16.89079  4      155
siesta:      9.53974  46.28758  13.11759  1      156
siesta:     11.15690  44.42314  12.44021  2      157
siesta:     12.38968  44.59409  10.22173  1      158
siesta:     12.10694  46.58188   8.56516  1      159
siesta:     10.45308  48.52702   9.21812  1      160
siesta:     10.13333  50.70722   7.41669  1      161
siesta:      9.12847  48.39198  11.54831  1      162
siesta:      7.42111  50.28171  12.34532  1      163
siesta:      6.08261  50.18091  14.65542  1      164
siesta:      4.36275  52.06322  15.47082  1      165
siesta:      3.73760  54.40625  13.98900  1      166
siesta:      3.09612  51.93437  17.69670  2      167
siesta:      2.46276  48.17717  22.74407  3      168
siesta:      0.01369  49.90419  21.24755  3      169
siesta:      2.53503  51.52624  22.77759  3      170
siesta:      5.34795  46.44092  19.86719  3      171
siesta:      7.74094  44.09289  18.44029  3      172
siesta:     13.65322  43.03203   9.80354  3      173
siesta:     13.15840  46.60257   6.80651  3      174
siesta:     11.30435  50.48015   5.72605  3      175
siesta:     10.69673  52.47862   8.32561  3      176
siesta:      8.16517  50.84030   6.79211  3      177
siesta:      7.13773  51.88570  11.10217  3      178
siesta:      4.70460  54.56911  12.17825  3      179
siesta:      4.23366  56.07678  15.10490  3      180
siesta:      1.70478  54.45236  13.60437  3      181

siesta: System type = molecule  

initatomlists: Number of atoms, orbitals, and projectors:    181  1194  2287

coxmol: Writing XMOL coordinates into file siesta.xyz                                                          

siesta: ******************** Simulation parameters ****************************
siesta:
siesta: The following are some of the parameters of the simulation.
siesta: A complete list of the parameters used, including default values,
siesta: can be found in file out.fdf
siesta:
redata: Spin configuration                          = collinear
redata: Number of spin components                   = 2
redata: Time-Reversal Symmetry                      = T
redata: Spin spiral                                 = F
redata: Long output                                 =   T
redata: Number of Atomic Species                    =        4
redata: Charge density info will appear in .RHO file
redata: Write Mulliken Pop.                         = Atomic and Orbital charges
redata: Matel table size (NRTAB)                    =     1024
redata: Mesh Cutoff                                 =   100.0000 Ry
redata: Net charge of the system                    =     0.0000 |e|
redata: Min. number of SCF Iter                     =        0
redata: Max. number of SCF Iter                     =      100
redata: SCF convergence failure will abort job
redata: SCF mix quantity                            = Hamiltonian
redata: Mix DM or H after convergence               =   F
redata: Recompute H after scf cycle                 =   F
redata: Mix DM in first SCF step                    =   T
redata: Write Pulay info on disk                    =   F
redata: New DM Occupancy tolerance                  = 0.000000000001
redata: No kicks to SCF
redata: DM Mixing Weight for Kicks                  =     0.5000
redata: Require Harris convergence for SCF          =   F
redata: Harris energy tolerance for SCF             =     0.000100 eV
redata: Require DM convergence for SCF              =   T
redata: DM tolerance for SCF                        =     0.001000
redata: Require EDM convergence for SCF             =   F
redata: EDM tolerance for SCF                       =     0.001000 eV
redata: Require H convergence for SCF               =   T
redata: Hamiltonian tolerance for SCF               =     0.001000 eV
redata: Require (free) Energy convergence for SCF   =   F
redata: (free) Energy tolerance for SCF             =     0.000100 eV
redata: Antiferro initial spin density              =   F
redata: Using Saved Data (generic)                  =   F
redata: Use continuation files for DM               =   F
redata: Neglect nonoverlap interactions             =   F
redata: Method of Calculation                       = Diagonalization
redata: Electronic Temperature                      =   299.9869 K
redata: Fix the spin of the system                  =   F
redata: Max. number of TDED Iter                    =        1
redata: Number of TDED substeps                     =        3
redata: Dynamics option                             = Nose thermostat MD run
redata: Initial MD time step                        =        1
redata:   Final MD time step                        =       10
redata: Length of MD time step                      =     1.0000 fs
redata: Initial Temperature of MD run               =   300.0000 K
redata: Perform a MD quench                         =   F
redata: Nose mass                                   =  1360.5800 eV/fs**2
redata: Target Temperature                          =   300.0000 Kelvin
mix.SCF: Pulay mixing                            = Pulay
mix.SCF:    Variant                              = stable
mix.SCF:    History steps                        = 3
mix.SCF:    Linear mixing weight                 =     0.250000
mix.SCF:    Mixing weight                        =     0.250000
mix.SCF:    SVD condition                        = 0.1000E-07
mix.SCF: Spin-component mixing                   all
redata: ***********************************************************************

%block SCF.Mixers
  Pulay
%endblock SCF.Mixers

%block SCF.Mixer.Pulay
  # Mixing method
  method pulay
  variant stable

  # Mixing options
  weight 0.2500
  weight.linear 0.2500
  history 3
%endblock SCF.Mixer.Pulay

Size of DM history Fstack: 1
Total number of electrons:   474.000000
Total ionic charge:   474.000000
 Kpoints in:            1 . Kpoints trimmed:            1

siesta: k-point coordinates (Bohr**-1) and weights:
siesta:          1  0.000000E+00  0.000000E+00  0.000000E+00   0.100000E+01

siesta: k-grid: Number of k-points =         1
siesta: k-points from Monkhorst-Pack grid
siesta: k-cutoff (effective) =    18.256 Ang
siesta: k-point supercell and displacements
siesta: k-grid:    1   0   0      0.000
siesta: k-grid:    0   1   0      0.000
siesta: k-grid:    0   0   1      0.000
 Kpoints in:            1 . Kpoints trimmed:            1

siesta: PDOS k-point coordinates (Bohr**-1) and weights:
siesta:          1  0.000000E+00  0.000000E+00  0.000000E+00   0.100000E+01

siesta: PDOS k-grid: Number of k-points =         1
siesta: PDOS k-points from Monkhorst-Pack grid
siesta: PDOS k-cutoff (effective) =     0.000 Ang
siesta: PDOS k-point supercell and displacements
siesta: k-grid:    1   0   0      0.000
siesta: k-grid:    0   1   0      0.000
siesta: k-grid:    0   0   1      0.000

diag: Algorithm                                     = D&C
diag: Used triangular part                          = Lower
diag: Absolute tolerance                            =  0.100E-15
diag: Orthogonalization factor                      =  0.100E-05
diag: Memory factor                                 =  1.0000
Using LatticeConstant from fdf file for BandLinesScale:    1.889727 Bohr
Beware any cell changes by the end of the run
Using LatticeConstant from fdf file for BandLinesScale:    1.889727 Bohr
Beware any cell changes by the end of the run


ts: **************************************************************
ts: Save H and S matrices                           =    F
ts: Save DM and EDM matrices                        =    F
ts: Only save the overlap matrix S                  =    F
ts: **************************************************************

************************ Begin: TS CHECKS AND WARNINGS ************************
************************ End: TS CHECKS AND WARNINGS **************************


                     ====================================
                        Begin MD step =      1
                     ====================================

outcoor: Atomic coordinates (Ang):                          
   18.40172800    6.55352400    7.40550800   1       1  C
   19.63089500    7.39092700    7.71448000   1       2  C
   20.97264500    6.66765500    7.47571900   1       3  C
   22.22515900    7.49603400    7.76927300   1       4  C
   22.08757300    8.82519000    8.22221700   1       5  C
   23.22740700    9.55284600    8.56687500   1       6  C
   23.31897600   10.82745300    9.08481100   2       7  N
   22.52788200   11.40800000    9.29963800   3       8  H
   24.62789200   11.10845500    9.36412300   1       9  C
   25.16295500   12.26709300   10.05600500   1      10  C
   24.49817200   13.46492100   10.17902100   1      11  C
   25.00226900   14.53705200   10.81984700   2      12  N
   26.20801300   14.43644400   11.42119100   1      13  C
   26.73221000   15.55443900   12.09295100   1      14  C
   26.03118200   16.91048700   11.98054200   1      15  C
   25.61943400   17.44949300   13.35816200   1      16  C
   26.86956200   17.94133500   11.17974300   1      17  C
   27.17212900   17.55662100    9.71789000   1      18  C
   25.94085700   17.40543300    8.83396400   1      19  C
   27.93121700   15.43717400   12.82488600   1      20  C
   28.64244000   14.24513900   12.84066400   1      21  C
   28.16619900   13.15670200   12.11496100   1      22  C
   26.95430300   13.23521700   11.39040600   1      23  C
   26.44714600   12.14958900   10.63158700   1      24  C
   27.20129300   10.82551500   10.47803000   1      25  C
   26.85669800   10.02908600    9.19553200   1      26  C
   25.38664000   10.02692600    8.97456800   1      27  C
   24.51156800    9.04113500    8.45612400   1      28  C
   24.66767500    7.74665100    7.94117500   1      29  C
   23.52956300    6.96837900    7.61589300   1      30  C
   23.80330100    5.55992700    7.13856900   1      31  C
   23.88554000    4.55556900    8.29866400   1      32  C
   24.14175500    3.09785800    7.85076600   1      33  C
   23.00707400    2.60818000    6.94747900   1      34  C
   25.53131000    2.95413900    7.19847100   1      35  C
   25.87345100    1.54101800    6.75066800   1      36  C
   17.50283500    7.09605100    7.72234300   3      37  H
   18.42229700    5.59833900    7.93660000   3      38  H
   18.31231900    6.36285500    6.33215000   3      39  H
   19.56725700    7.70219000    8.76476000   3      40  H
   19.57969600    8.29789600    7.09920200   3      41  H
   21.00906000    6.33396300    6.43217500   3      42  H
   20.99459300    5.77679600    8.11607400   3      43  H
   21.11859900    9.29017200    8.34107800   3      44  H
   23.51505400   13.62619100    9.74657100   3      45  H
   25.08306000   16.79423500   11.44498300   3      46  H
   26.47520000   17.69168100   13.99598800   3      47  H
   25.00402900   16.71328800   13.88921100   3      48  H
   25.01725300   18.35847000   13.24796100   3      49  H
   27.82789400   18.11763100   11.68588900   3      50  H
   26.34467800   18.90517100   11.17785500   3      51  H
   27.75660300   16.63068000    9.68335600   3      52  H
   27.80992200   18.33440800    9.27784400   3      53  H
   25.22762700   16.68686800    9.24035400   3      54  H
   26.23154900   17.04555200    7.84082700   3      55  H
   25.42554900   18.36227600    8.70531600   3      56  H
   28.32310700   16.28616700   13.38183400   3      57  H
   29.56576400   14.16116000   13.39957800   3      58  H
   28.74789900   12.24266400   12.14398100   3      59  H
   26.97289200   10.21249600   11.35986300   3      60  H
   28.28294300   10.99726300   10.45773500   3      61  H
   27.25442000    9.01245200    9.27298300   3      62  H
   27.33804300   10.50766500    8.33247800   3      63  H
   25.66798900    7.33721400    7.82439400   3      64  H
   24.75043200    5.56441100    6.58442600   3      65  H
   23.04559700    5.27500800    6.40527200   3      66  H
   22.95422100    4.58797400    8.87832600   3      67  H
   24.67917800    4.85878900    8.99557100   3      68  H
   24.13329400    2.47435800    8.75601200   3      69  H
   22.96545900    3.17092400    6.01056300   3      70  H
   22.04152500    2.71702400    7.45349900   3      71  H
   23.12218000    1.55256900    6.68887800   3      72  H
   26.29416900    3.28180800    7.91628400   3      73  H
   25.61611500    3.60899900    6.32581800   3      74  H
   25.76876700    0.82625600    7.57182600   3      75  H
   26.90882700    1.50606800    6.39597400   3      76  H
   25.23633000    1.22070500    5.92089500   3      77  H
    9.45586100   25.48753700   28.14080200   1      78  C
    9.07476700   26.89608600   27.77737500   1      79  C
   10.03100400   27.90803100   27.89529300   1      80  C
    9.67624400   29.19736600   27.55031600   1      81  C
    8.45592400   29.54584600   27.09698100   2      82  N
    7.52987900   28.58008700   26.97390300   1      83  C
    6.27779300   28.93020100   26.48596300   1      84  C
    5.26103000   27.98806500   26.31580800   1      85  C
    5.48976300   26.66266300   26.65470300   1      86  C
    6.73644600   26.28475200   27.15195600   1      87  C
    7.77894300   27.22885400   27.30886700   1      88  C
   10.50884200   25.41853700   28.43463300   3      89  H
    9.31429500   24.82198500   27.28312800   3      90  H
    8.85334600   25.13486300   28.98398200   3      91  H
   11.03720500   27.70160500   28.24421600   3      92  H
   10.38985200   30.01278200   27.62639700   3      93  H
    6.09143900   29.96881200   26.22285900   3      94  H
    4.29730400   28.29590100   25.91902100   3      95  H
    4.70444100   25.92187700   26.52941700   3      96  H
    6.88937600   25.24059600   27.41159400   3      97  H
   25.85023900   19.81466500    3.47130300   1      98  C
   26.64642100   21.02836600    3.11179100   1      99  C
   27.16066500   21.10674900    1.85486300   2     100  N
   27.88537400   22.18748400    1.49243200   1     101  C
   28.16353900   23.26536300    2.31636100   1     102  C
   27.64485100   23.20952100    3.61749700   1     103  C
   27.69760000   24.08516700    4.74914800   1     104  C
   28.29083800   25.34141600    4.99207700   1     105  C
   28.14525800   25.94006000    6.24908500   1     106  C
   27.42206200   25.30719700    7.25726700   1     107  C
   26.82423400   24.06233600    7.04175600   1     108  C
   26.98057800   23.47878600    5.77900500   1     109  C
   26.51133800   22.28236400    5.29247000   2     110  N
   25.95577700   21.63015300    5.82579900   3     111  H
   26.89784300   22.09188500    3.98570900   1     112  C
   25.78929600   19.12110000    2.62701100   3     113  H
   24.83311400   20.10252400    3.75426800   3     114  H
   26.31850700   19.29329500    4.31178600   3     115  H
   28.25623300   22.16516500    0.47116600   3     116  H
   28.75171700   24.10424700    1.96669600   3     117  H
   28.85660600   25.84300600    4.21272100   3     118  H
   28.60186300   26.90847000    6.43839100   3     119  H
   27.32002800   25.78823300    8.22750900   3     120  H
   26.26199600   23.57247200    7.82997500   3     121  H
   19.01541300    4.05203400    3.95426900   1     122  C
   17.75563200    4.50839000    3.28283600   1     123  C
   16.76852200    3.60171900    2.92986800   1     124  C
   15.54795700    4.07493100    2.43773400   1     125  C
   14.51478900    3.17012200    2.13735000   1     126  C
   13.24687400    3.62582900    1.74265800   1     127  C
   12.17062700    2.76625800    1.50475400   1     128  C
   10.92400800    3.17289400    1.16695400   2     129  N
   10.73816100    4.50101500    1.04589500   1     130  C
   11.73858300    5.44085600    1.23059100   1     131  C
   13.01952900    5.00202400    1.59269600   1     132  C
   14.07316800    5.90286400    1.83967300   1     133  C
   15.34773700    5.46307300    2.28313600   1     134  C
   16.43484500    6.30653800    2.61065800   1     135  C
   16.37654900    7.80374400    2.52642800   1     136  C
   17.60795000    5.83811100    3.11399300   2     137  N
   19.09265800    2.96060100    3.97798700   3     138  H
   19.02607300    4.41583000    4.98728200   3     139  H
   19.88995300    4.44753200    3.42997400   3     140  H
   16.93157100    2.53863600    3.07876700   3     141  H
   14.68319100    2.10276000    2.25060000   3     142  H
   12.27915800    1.68939500    1.60068400   3     143  H
    9.72661300    4.80660900    0.79229500   3     144  H
   11.51390100    6.49639500    1.11462000   3     145  H
   13.87758000    6.96244200    1.71190400   3     146  H
   15.57455700    8.17852800    1.88816400   3     147  H
   17.31455000    8.18558900    2.10775500   3     148  H
   16.25066300    8.22229300    3.53040500   3     149  H
    1.08202600   26.39136300   11.44955600   1     150  C
    1.84627700   26.41914900   10.16055800   1     151  C
    2.71930000   25.39741700    9.81604100   1     152  C
    3.43175200   25.44161400    8.59473100   1     153  C
    4.34681700   24.43526200    8.16200100   1     154  C
    4.60108700   23.31667900    8.93821800   4     155  O
    5.04821200   24.49432500    6.94152800   1     156  C
    5.90397400   23.50770300    6.58307200   2     157  N
    6.55633500   23.59816900    5.40910600   1     158  C
    6.40671300   24.65006100    4.53248500   1     159  C
    5.53152800   25.67938200    4.87801500   1     160  C
    5.36232500   26.83309600    3.92474300   1     161  C
    4.83057500   25.60792400    6.11110100   1     162  C
    3.92708300   26.60792600    6.53286200   1     163  C
    3.21877700   26.55458300    7.75531200   1     164  C
    2.30866600   27.55065600    8.18680300   1     165  C
    1.97785200   28.79053800    7.40265800   1     166  C
    1.63839400   27.48247500    9.36468700   2     167  N
    1.30323700   25.49425200   12.03564000   3     168  H
    0.00724500   26.40814800   11.24371700   3     169  H
    1.34148000   27.26650100   12.05337900   3     170  H
    2.83001200   24.57546600   10.51326200   3     171  H
    4.09632500   23.33294100    9.75817600   3     172  H
    7.22497000   22.77156100    5.18780900   3     173  H
    6.96312400   24.66100800    3.60184900   3     174  H
    5.98200300   26.71293600    3.03009200   3     175  H
    5.66046200   27.77047900    4.40572300   3     176  H
    4.32082200   26.90351600    3.59422700   3     177  H
    3.77712100   27.45672000    5.87501200   3     178  H
    2.48956800   28.87671600    6.44445200   3     179  H
    2.24035800   29.67454400    7.99316400   3     180  H
    0.90212800   28.81493800    7.19911800   3     181  H

outcell: Unit cell vectors (Ang):
       37.558519    0.000000    0.000000
        0.000000   37.186526    0.000000
        0.000000    0.000000   36.512816

outcell: Cell vector modules (Ang)   :   37.558519   37.186526   36.512816
outcell: Cell angles (23,13,12) (deg):     90.0000     90.0000     90.0000
outcell: Cell volume (Ang**3)        :  50996.3855
<dSpData1D:S at geom step 1
  <sparsity:sparsity for geom step 1
    nrows_g=1194 nrows=1194 sparsity=.1473 nnzs=210054, refcount: 7>
  <dData1D:(new from dSpData1D) n=210054, refcount: 1>
refcount: 1>
new_DM -- step:     1
Initializing Density Matrix...
DM filled with atomic data:
<dSpData2D:DM initialized from atoms
  <sparsity:sparsity for geom step 1
    nrows_g=1194 nrows=1194 sparsity=.1473 nnzs=210054, refcount: 8>
  <dData2D:DM n=210054 m=2, refcount: 1>
refcount: 1>
     spin moment: S , {S} =  284.00000       0.0       0.0 284.00000
No. of atoms with KB's overlaping orbs in proc 0. Max # of overlaps:     181     147

InitMesh: MESH = 240 x 240 x 240 = 13824000
InitMesh: Mesh cutoff (required, used) =   100.000   112.851 Ry
New grid distribution [1]: sub = 2

stepf: Fermi-Dirac step function

siesta: Program's energy decomposition (eV):
siesta: Ebs     =     -6177.519810
siesta: Eions   =     27452.691062
siesta: Ena     =      5636.441239
siesta: Ekin    =     11984.626472
siesta: Enl     =     -1666.168882
siesta: Eso     =         0.000000
siesta: Edftu   =         0.000000
siesta: DEna    =      -105.204749
siesta: DUscf   =        57.159461
siesta: DUext   =         0.000000
siesta: Exc     =     -6180.355326
siesta: eta*DQ  =         0.000000
siesta: Emadel  =         0.000000
siesta: Emeta   =         0.000000
siesta: Emolmec =         0.000000
siesta: Ekinion =         0.000000
siesta: Eharris =    -17653.756213
siesta: Etot    =    -17726.192848
siesta: FreeEng =    -17726.197835

        iscf     Eharris(eV)        E_KS(eV)     FreeEng(eV)     dDmax    Ef(eV) dHmax(eV)
   scf:    1   -17653.756213   -17726.192848   -17726.197835  0.855681 -5.101144 14.029907
     spin moment: S , {S} =    9.96165       0.0       0.0   9.96165
timer: Routine,Calls,Time,% = IterSCF        1      20.039  36.10
   scf:    2   -17648.955486   -17720.867274   -17720.919732  0.540408 -5.041669 23.386628
     spin moment: S , {S} =    7.52771       0.0       0.0   7.52771
   scf:    3   -17759.361091   -17754.392282   -17754.426978  0.547920 -4.886620  5.541526
     spin moment: S , {S} =    4.39672       0.0       0.0   4.39672
   scf:    4   -17757.302042   -17757.106097   -17757.146127  0.098473 -4.967340  4.553059
     spin moment: S , {S} =    2.55004       0.0       0.0   2.55004
   scf:    5   -17739.600153   -17754.638671   -17754.652209  0.158496 -4.849703  7.480582
     spin moment: S , {S} =    2.00053       0.0       0.0   2.00053
   scf:    6   -17765.063133   -17762.107128   -17762.107175  0.131651 -4.898412  1.499537
     spin moment: S , {S} =    0.00017       0.0       0.0   0.00017
   scf:    7   -17762.588111   -17762.408875   -17762.408875  0.022396 -4.801071  0.950445
     spin moment: S , {S} =    0.00000       0.0       0.0   0.00000
   scf:    8   -17762.544245   -17762.490397   -17762.490397  0.009204 -4.790285  0.578043
     spin moment: S , {S} =    0.00000       0.0       0.0   0.00000
   scf:    9   -17762.545374   -17762.519961   -17762.519961  0.005839 -4.765794  0.279276
     spin moment: S , {S} =   -0.00000       0.0       0.0  -0.00000
   scf:   10   -17762.535603   -17762.528623   -17762.528623  0.003599 -4.858758  0.173410
     spin moment: S , {S} =   -0.00000       0.0       0.0  -0.00000
   scf:   11   -17762.531812   -17762.530580   -17762.530580  0.002039 -4.813124  0.109311
     spin moment: S , {S} =   -0.00000       0.0       0.0  -0.00000
   scf:   12   -17762.531814   -17762.531364   -17762.531364  0.001449 -4.858187  0.071156
     spin moment: S , {S} =   -0.00000       0.0       0.0  -0.00000
   scf:   13   -17762.531827   -17762.531640   -17762.531640  0.000937 -4.896082  0.026549
     spin moment: S , {S} =   -0.00000       0.0       0.0  -0.00000
   scf:   14   -17762.531787   -17762.531717   -17762.531717  0.000367 -4.889342  0.020327
     spin moment: S , {S} =   -0.00000       0.0       0.0  -0.00000
   scf:   15   -17762.531809   -17762.531767   -17762.531767  0.000283 -4.882759  0.014778
     spin moment: S , {S} =   -0.00000       0.0       0.0  -0.00000
   scf:   16   -17762.531800   -17762.531787   -17762.531787  0.000208 -4.882905  0.008975
     spin moment: S , {S} =   -0.00000       0.0       0.0  -0.00000
   scf:   17   -17762.531797   -17762.531793   -17762.531793  0.000108 -4.882244  0.004694
     spin moment: S , {S} =    0.00000       0.0       0.0   0.00000
   scf:   18   -17762.531799   -17762.531796   -17762.531796  0.000070 -4.883594  0.003317
     spin moment: S , {S} =    0.00000       0.0       0.0   0.00000
   scf:   19   -17762.531799   -17762.531798   -17762.531798  0.000058 -4.884488  0.002080
     spin moment: S , {S} =    0.00000       0.0       0.0   0.00000
   scf:   20   -17762.531799   -17762.531798   -17762.531798  0.000034 -4.885039  0.001340
     spin moment: S , {S} =   -0.00000       0.0       0.0  -0.00000
   scf:   21   -17762.531799   -17762.531799   -17762.531799  0.000036 -4.885184  0.000683
     spin moment: S , {S} =    0.00000       0.0       0.0   0.00000

SCF Convergence by DM+H criterion
max |DM_out - DM_in|         :     0.0000355453
max |H_out - H_in|      (eV) :     0.0006826800
SCF cycle converged after 21 iterations

Using DM_out to compute the final energy and forces
No. of atoms with KB's overlaping orbs in proc 0. Max # of overlaps:     181     147

siesta: E_KS(eV) =           -17762.5318

siesta: E_KS - E_eggbox =    -17762.5318
     spin moment: S , {S} =    0.00000       0.0       0.0   0.00000

siesta: Atomic forces (eV/Ang):
     1    1.722976    0.935064    0.329197
     2    0.823497   -1.717953   -0.569196
     3   -0.170949    2.440841    0.763616
     4   -0.968129    0.387501    0.129213
     5    1.242124   -1.235621   -0.357363
     6   -1.613347    0.360803   -0.147214
     7    0.645089   -0.725750   -0.298485
     8   -2.533855    1.931219    0.805849
     9    0.775653    0.508119    0.345715
    10    1.128874   -1.825400   -0.234584
    11    1.488781    1.952969    1.621675
    12   -1.208894    1.434982   -0.912789
    13   -0.175918   -0.350532   -0.281918
    14    0.419370    2.068156    0.658971
    15    1.571500    0.349887    0.756151
    16    0.861907   -0.698817   -1.895317
    17   -0.690223   -2.252110   -0.859761
    18   -2.097787    0.227458    1.113565
    19    1.587585    0.278137    1.251596
    20   -1.794151   -0.261072   -1.355360
    21   -1.572999   -0.908744   -1.259628
    22   -0.379295    1.371760    0.153865
    23    0.522102   -1.013498   -0.100282
    24    0.251445   -1.115275   -0.473081
    25   -1.497713    1.022342   -1.646504
    26   -1.282925    1.427751    1.547978
    27    1.272221   -0.228382    0.247656
    28    1.216104   -0.726559   -0.172518
    29   -2.173320   -0.037589    0.002915
    30    1.195785   -0.307584    0.010094
    31   -0.285724    0.413843    2.132664
    32    0.265812   -0.988259   -2.346719
    33    0.104944    1.273764   -1.717908
    34    1.791093    0.796219    1.231247
    35   -1.814075   -1.463651    0.434538
    36   -0.676463    1.839848    0.539814
    37   -1.479311    0.867292    0.498934
    38    0.065771   -1.768529    0.959881
    39   -0.163059   -0.412788   -2.045009
    40    0.072993    0.601139    1.768028
    41    0.071153    1.597510   -0.996697
    42    0.037649   -0.829038   -1.947657
    43    0.055858   -1.814687    1.028237
    44   -2.473943    0.859951    0.221419
    45   -2.434657    0.200227   -1.184581
    46   -1.615326   -0.722027   -1.163752
    47    1.628329    0.386281    1.094691
    48   -0.961521   -1.301754    0.810002
    49   -0.948255    1.542978   -0.301618
    50    1.677907    0.208817    0.962030
    51   -1.066064    1.621492    0.120006
    52    0.995548   -1.740799    0.080257
    53    1.114454    1.323566   -0.622576
    54   -1.327414   -1.565167    0.960681
    55    0.507343   -0.589968   -1.661692
    56   -0.904326    1.698758   -0.166168
    57    0.702626    1.996717    1.102042
    58    2.182045   -0.222314    1.332356
    59    1.191616   -2.219844   -0.091902
    60   -0.408104   -1.219608    1.604327
    61    1.917216    0.469988    0.180082
    62    0.754810   -1.891396    0.209038
    63    1.050855    0.890345   -1.512944
    64    2.137230   -1.088593   -0.327608
    65    1.705815    0.018017   -0.794393
    66   -1.658533   -0.734579   -1.231937
    67   -1.691446    0.074819    0.936513
    68    1.397629    0.627394    1.069437
    69    0.033953   -1.072344    1.564637
    70   -0.010721    1.082838   -1.638720
    71   -1.643769    0.278576    0.898167
    72    0.351226   -1.907997   -0.427014
    73    1.219669    0.668306    1.287977
    74    0.017238    1.306366   -1.554359
    75   -0.226040   -1.287172    1.486622
    76    1.773942   -0.084125   -0.582822
    77   -1.207454   -0.552751   -1.386586
    78   -0.583437    1.896851   -0.534324
    79    0.922791   -0.533767    0.394184
    80   -1.811378   -1.089325   -0.382848
    81   -2.581876   -0.199038   -0.774742
    82    0.886196    2.339646   -0.256090
    83    0.674440   -0.457491    0.309806
    84   -1.580683   -1.385025   -0.266783
    85    1.819412    0.811273    0.482532
    86    1.852437    0.194422    0.587049
    87   -0.485759    1.266017   -0.445156
    88    0.032665   -0.864381    0.184855
    89    1.771400    0.072666    0.486748
    90   -0.443527   -1.293881   -1.490268
    91   -1.216833   -0.781157    1.441558
    92    2.237247   -0.653388    0.812747
    93    1.854098    1.932655    0.241738
    94   -0.225191    2.329836   -0.527964
    95   -2.114059    0.720015   -0.865267
    96   -1.704412   -1.658594   -0.246061
    97    0.567586   -2.305268    0.626006
    98    0.930157    1.612619   -0.178354
    99    0.475330    0.068934   -1.226000
   100   -0.547812   -1.635210   -0.298124
   101   -0.799744   -0.250462    1.738654
   102   -0.886742   -1.047017    0.854086
   103    0.888284    0.896942   -1.025784
   104    0.953535    1.465943   -0.411961
   105   -0.912696   -0.841020    1.245046
   106   -0.355962   -1.390345   -1.029927
   107   -0.222306   -1.168899   -1.130789
   108    0.857928    0.828322   -1.099336
   109   -0.427025   -0.235892    0.766611
   110    0.126942    0.773714   -0.009563
   111   -1.689566   -2.025071    1.571379
   112   -0.511847   -0.706616    0.361482
   113    0.037325   -1.049598   -1.627535
   114   -1.926586    0.454044    0.642728
   115    0.764366   -1.010836    1.653927
   116    0.954369    0.076015   -2.446992
   117    1.432756    2.038188   -0.850604
   118    1.296610    1.161479   -1.781008
   119    0.986131    2.075705    0.393587
   120   -0.234195    1.015022    2.109621
   121   -1.280835   -1.115670    1.791398
   122   -1.528925    0.294459   -1.006252
   123   -0.216552   -1.101056    0.112803
   124    0.734875    1.403570    0.116076
   125   -0.529239   -1.314775   -0.208610
   126   -0.420428    1.567000   -0.198321
   127    1.087440   -0.765481    0.296910
   128   -2.209032    1.549635   -0.668666
   129    0.836708   -2.174868    0.484566
   130    1.968148    0.397937    0.424021
   131   -0.516428   -1.499496   -0.073890
   132    0.812351    1.499747    0.121841
   133    0.855483   -1.410130    0.345850
   134   -1.282315    0.750201   -0.513873
   135    1.646097    0.307436    0.665385
   136   -0.253806   -1.853509   -0.301370
   137   -0.270293    2.398435   -0.320879
   138    0.030924   -1.892412    0.023903
   139    0.148177    0.769192    1.972000
   140    1.645982    0.860056   -0.867670
   141    0.258201   -2.369239    0.298577
   142    0.414170   -2.372480    0.291324
   143    0.539988   -2.638975    0.294631
   144   -2.417470    0.922086   -0.637087
   145   -0.377382    2.456811   -0.231554
   146   -0.434790    2.433652   -0.243127
   147   -1.587114    0.579579   -1.120208
   148    1.728815    0.568941   -0.548434
   149   -0.203691    0.844323    1.846310
   150    1.090287   -0.291814   -1.502757
   151    0.450056   -0.969505    0.332085
   152   -0.114472    0.904191   -0.786286
   153    0.392997   -0.903506    0.315252
   154   -0.410839   -1.279882    2.084397
   155    0.391844   -0.445851   -1.016956
   156    0.450001   -0.271910   -0.478239
   157    1.242680   -1.492970    0.270356
   158   -1.795514    0.441844    2.497670
   159   -1.495789    1.539567    0.831991
   160    0.553606    0.309713   -1.255126
   161    0.129494   -1.598523    1.470945
   162   -0.946592    1.579906   -0.124735
   163    0.162013   -0.726215    0.504598
   164    0.663440    0.271525   -1.371538
   165   -1.038901    0.591192    1.126529
   166    0.783778   -1.723880    0.582337
   167   -0.395751    1.430693   -1.164087
   168    0.431133   -1.560000    0.955024
   169   -2.015334    0.172807   -0.336993
   170    0.345717    1.694327    1.095008
   171    0.252416   -1.898873    1.622364
   172   -1.994397    0.585625    2.680669
   173    1.690764   -2.020655   -0.643570
   174    1.185033    0.199991   -2.181455
   175    1.110427   -0.392330   -1.421359
   176    0.343343    1.781918    0.916851
   177   -1.941341    0.292034   -0.477621
   178   -0.303646    1.905174   -1.526471
   179    1.038979    0.022220   -1.760761
   180    0.339584    1.597567    1.135034
   181   -1.954153    0.098790   -0.220574
----------------------------------------
   Tot   -0.725682    0.845928    2.282123
----------------------------------------
   Max    2.680669
   Res    1.177976    sqrt( Sum f_i^2 / 3N )
----------------------------------------
   Max    2.680669    constrained

Stress tensor Voigt[x,y,z,yz,xz,xy] (kbar):       -3.04       -4.20       -2.45        0.45       -0.04        0.16
(Free)E + p*V (eV/cell)   -17659.6551
Target enthalpy (eV/cell)   -17762.5318

siesta: Stress tensor (static) (eV/Ang**3):
        -0.001802    0.000109   -0.000018
         0.000109   -0.002530    0.000287
        -0.000018    0.000287   -0.001449

siesta: Pressure (static):          3.08702115  kBar

siesta: Stress tensor (total) (eV/Ang**3):
        -0.001899    0.000099   -0.000027
         0.000099   -0.002624    0.000278
        -0.000027    0.000278   -0.001529

siesta: Pressure (total):          3.23215952  kBar

mulliken: Atomic and Orbital Populations:

mulliken: Spin UP 

Species: C                   
Atom  Qatom  Qorb
               2s      2py     2pz     2px     3Pdxy   3Pdyz   3Pdz2   3Pdxz   
               3Pdx2-y2
   1  2.216   0.516   0.561   0.573   0.546   0.006   0.004   0.006   0.001
              0.003
   2  2.137   0.495   0.544   0.566   0.509   0.007   0.005   0.006   0.001
              0.004
   3  2.149   0.497   0.546   0.565   0.511   0.008   0.008   0.007   0.004
              0.001
   4  2.010   0.475   0.510   0.488   0.510   0.007   0.004   0.001   0.003
              0.013
   5  2.074   0.467   0.528   0.516   0.539   0.007   0.004   0.003   0.003
              0.007
   6  1.955   0.440   0.447   0.498   0.534   0.004   0.008   0.004   0.007
              0.013
   9  1.962   0.443   0.522   0.515   0.447   0.009   0.005   0.002   0.013
              0.006
  10  2.019   0.449   0.516   0.501   0.521   0.008   0.004   0.006   0.005
              0.010
  11  2.018   0.454   0.488   0.487   0.535   0.010   0.010   0.005   0.005
              0.024
  13  1.960   0.436   0.520   0.484   0.466   0.024   0.009   0.007   0.003
              0.011
  14  1.991   0.476   0.510   0.480   0.502   0.005   0.003   0.005   0.002
              0.008
  15  2.084   0.487   0.497   0.521   0.547   0.008   0.007   0.005   0.006
              0.005
  16  2.207   0.517   0.567   0.537   0.567   0.005   0.003   0.004   0.005
              0.002
  17  2.129   0.501   0.538   0.519   0.550   0.006   0.003   0.005   0.003
              0.002
  18  2.142   0.499   0.567   0.514   0.539   0.006   0.002   0.006   0.006
              0.003
  19  2.217   0.516   0.573   0.559   0.550   0.005   0.002   0.003   0.006
              0.003
  20  2.062   0.473   0.539   0.509   0.519   0.004   0.004   0.002   0.005
              0.008
  21  2.071   0.474   0.526   0.508   0.536   0.010   0.007   0.003   0.003
              0.003
  22  2.063   0.475   0.543   0.504   0.521   0.005   0.003   0.005   0.001
              0.007
  23  2.008   0.454   0.516   0.499   0.513   0.008   0.004   0.006   0.003
              0.006
  24  1.986   0.480   0.503   0.477   0.505   0.005   0.002   0.004   0.002
              0.008
  25  2.144   0.498   0.522   0.542   0.557   0.005   0.009   0.006   0.000
              0.005
  26  2.160   0.494   0.561   0.538   0.534   0.001   0.006   0.005   0.011
              0.010
  27  2.007   0.457   0.512   0.514   0.503   0.012   0.002   0.002   0.003
              0.002
  28  2.019   0.448   0.516   0.509   0.517   0.006   0.006   0.003   0.005
              0.007
  29  2.068   0.475   0.521   0.505   0.544   0.006   0.003   0.003   0.003
              0.007
  30  2.010   0.473   0.506   0.490   0.514   0.013  -0.001   0.001   0.008
              0.007
  31  2.151   0.494   0.515   0.544   0.568  -0.002   0.012   0.002   0.008
              0.010
  32  2.128   0.501   0.509   0.536   0.563  -0.001   0.007   0.001   0.006
              0.006
  33  2.075   0.490   0.518   0.535   0.505   0.002   0.006   0.003   0.008
              0.009
  34  2.208   0.514   0.567   0.559   0.549   0.002   0.003   0.003   0.006
              0.005
  35  2.135   0.496   0.530   0.557   0.531   0.001   0.005   0.002   0.006
              0.007
  36  2.215   0.515   0.540   0.570   0.570   0.001   0.006   0.003   0.004
              0.006
  78  2.226   0.512   0.538   0.575   0.576  -0.000   0.011   0.003   0.004
              0.008
  79  1.997   0.474   0.514   0.465   0.517   0.011   0.001   0.001   0.006
              0.008
  80  2.058   0.467   0.528   0.498   0.544   0.009   0.006   0.000   0.002
              0.004
  81  2.020   0.460   0.542   0.473   0.489   0.030   0.009   0.004   0.005
              0.009
  83  1.967   0.434   0.492   0.486   0.496   0.012   0.008   0.002   0.008
              0.029
  84  2.053   0.473   0.553   0.487   0.520   0.007   0.002   0.001   0.005
              0.004
  85  2.068   0.475   0.530   0.493   0.546   0.007   0.008   0.000   0.002
              0.006
  86  2.069   0.474   0.540   0.491   0.538   0.004   0.004   0.003   0.003
              0.010
  87  2.062   0.477   0.548   0.493   0.522   0.009   0.002   0.002   0.005
              0.004
  88  2.005   0.454   0.522   0.491   0.514   0.005   0.005  -0.000   0.005
              0.010
  98  2.234   0.512   0.548   0.581   0.563   0.007   0.007   0.005   0.003
              0.007
  99  1.970   0.453   0.506   0.466   0.487   0.007   0.021   0.020   0.009
              0.001
 101  2.027   0.457   0.480   0.545   0.489   0.009   0.012   0.014   0.007
              0.014
 102  2.070   0.470   0.539   0.525   0.510   0.003   0.006   0.004   0.007
              0.003
 103  2.009   0.453   0.511   0.515   0.506   0.004   0.005   0.009   0.004
              0.003
 104  2.010   0.452   0.513   0.511   0.510   0.001   0.010   0.000   0.006
              0.006
 105  2.070   0.478   0.522   0.539   0.506   0.005   0.003   0.008   0.005
              0.003
 106  2.072   0.473   0.542   0.522   0.512   0.003   0.009   0.004   0.005
              0.003
 107  2.069   0.475   0.522   0.546   0.499   0.002   0.006   0.005   0.003
              0.008
 108  2.079   0.469   0.530   0.531   0.524   0.006   0.003   0.008   0.004
              0.003
 109  1.953   0.443   0.454   0.523   0.496   0.004   0.008   0.006   0.009
              0.010
 112  1.945   0.439   0.526   0.445   0.503   0.004   0.005   0.010   0.007
              0.004
 122  2.229   0.514   0.574   0.568   0.547   0.001   0.002   0.009   0.007
              0.008
 123  1.962   0.454   0.465   0.475   0.510   0.023   0.013   0.001   0.004
              0.017
 124  2.050   0.467   0.549   0.500   0.518   0.009   0.003   0.002   0.002
              0.001
 125  2.012   0.453   0.523   0.484   0.521   0.008   0.007   0.001   0.006
              0.009
 126  2.049   0.477   0.551   0.485   0.519   0.009   0.002   0.001   0.003
              0.003
 127  2.010   0.447   0.525   0.486   0.522   0.008   0.006   0.000   0.006
              0.009
 128  2.007   0.464   0.551   0.469   0.473   0.015   0.002   0.002   0.009
              0.024
 130  2.021   0.459   0.471   0.485   0.552   0.023   0.010   0.001   0.002
              0.018
 131  2.056   0.471   0.554   0.485   0.525   0.010   0.002   0.001   0.005
              0.003
 132  2.013   0.451   0.524   0.485   0.522   0.008   0.006  -0.000   0.006
              0.010
 133  2.051   0.481   0.550   0.485   0.518   0.009   0.002   0.001   0.004
              0.002
 134  2.009   0.453   0.521   0.492   0.516   0.007   0.005   0.001   0.005
              0.009
 135  1.952   0.464   0.508   0.456   0.469   0.014   0.001   0.003   0.011
              0.026
 136  2.229   0.513   0.530   0.578   0.581  -0.001   0.008   0.005   0.006
              0.010
 150  2.229   0.513   0.578   0.543   0.567   0.000   0.006   0.006   0.006
              0.010
 151  1.966   0.453   0.474   0.487   0.491   0.016   0.007   0.015   0.009
              0.012
 152  2.059   0.468   0.532   0.525   0.514   0.003   0.004   0.007   0.000
              0.004
 153  2.016   0.452   0.511   0.518   0.504   0.004   0.008   0.007   0.004
              0.007
 154  1.933   0.459   0.429   0.478   0.504   0.017   0.003   0.020   0.011
              0.014
 156  1.969   0.431   0.487   0.508   0.485   0.008   0.010   0.014   0.010
              0.016
 158  2.021   0.458   0.535   0.474   0.496   0.011   0.021   0.016   0.006
              0.004
 159  2.058   0.466   0.520   0.539   0.513   0.003   0.007   0.003   0.004
              0.004
 160  1.997   0.475   0.504   0.503   0.488   0.004   0.007   0.008   0.002
              0.005
 161  2.224   0.511   0.551   0.558   0.578   0.001   0.009   0.001   0.006
              0.010
 162  2.008   0.452   0.515   0.512   0.502   0.002   0.007   0.005   0.004
              0.009
 163  2.061   0.475   0.533   0.525   0.509   0.003   0.004   0.007   0.000
              0.004
 164  2.012   0.452   0.512   0.516   0.504   0.003   0.008   0.007   0.004
              0.006
 165  1.951   0.465   0.500   0.463   0.469   0.008   0.018   0.009   0.012
              0.008
 166  2.229   0.513   0.546   0.566   0.577   0.001   0.007   0.003   0.006
              0.011

Species: N                   
Atom  Qatom  Qorb
               2s      2py     2pz     2px     3Pdxy   3Pdyz   3Pdz2   3Pdxz   
               3Pdx2-y2
   7  2.686   0.649   0.637   0.742   0.619   0.008   0.005   0.005   0.007
              0.013
  12  2.636   0.723   0.711   0.551   0.612   0.007   0.009   0.005   0.006
              0.012
  82  2.639   0.728   0.750   0.556   0.565   0.015   0.006   0.005   0.007
              0.008
 100  2.636   0.729   0.674   0.640   0.553   0.008   0.005   0.013   0.007
              0.007
 110  2.684   0.649   0.646   0.625   0.727   0.007   0.006   0.009   0.008
              0.005
 129  2.639   0.735   0.650   0.537   0.673   0.006   0.007   0.004   0.007
              0.019
 137  2.635   0.729   0.644   0.559   0.666   0.005   0.005   0.004   0.007
              0.016
 157  2.638   0.725   0.688   0.634   0.550   0.009   0.006   0.012   0.007
              0.006
 167  2.636   0.727   0.668   0.567   0.637   0.004   0.008   0.007   0.009
              0.009

Species: H                   
Atom  Qatom  Qorb
               1s      2Ppy    2Ppz    2Ppx    
   8  0.338   0.326  -0.003   0.017  -0.003
  37  0.427   0.447  -0.009  -0.012   0.001
  38  0.429   0.448   0.000  -0.009  -0.010
  39  0.427   0.446  -0.013   0.004  -0.010
  40  0.431   0.447  -0.009   0.003  -0.010
  41  0.431   0.448   0.001  -0.007  -0.010
  42  0.424   0.439  -0.008   0.003  -0.010
  43  0.421   0.438   0.002  -0.007  -0.011
  44  0.435   0.434  -0.007   0.004   0.004
  45  0.428   0.420  -0.007   0.005   0.010
  46  0.424   0.432  -0.002  -0.011   0.005
  47  0.430   0.450  -0.013  -0.003  -0.005
  48  0.426   0.445  -0.005  -0.005  -0.008
  49  0.430   0.449  -0.001  -0.010  -0.008
  50  0.430   0.447  -0.011  -0.006   0.001
  51  0.432   0.447   0.004  -0.010  -0.009
  52  0.427   0.442  -0.001  -0.008  -0.006
  53  0.429   0.447  -0.006  -0.006  -0.005
  54  0.430   0.444  -0.001  -0.011  -0.002
  55  0.430   0.449  -0.011   0.002  -0.010
  56  0.434   0.453  -0.002  -0.011  -0.006
  57  0.435   0.430   0.003   0.006  -0.004
  58  0.433   0.427  -0.008   0.006   0.009
[...]
   23.5883   23.6360   23.7133   23.8027   23.8695   23.9133   24.0474   24.0823   24.0964   24.1696
   24.2212   24.3065   24.3674   24.4278   24.4785   24.5972   24.6120   24.6262   24.7002   24.7629
   24.7855   24.9335   24.9983   25.0350   25.0681   25.0967   25.2145   25.2483   25.4329   25.4596
   25.4813   25.5153   25.5489   25.5616   25.5856   25.6888   25.7603   25.8988   25.9011   25.9203
   25.9425   25.9932   26.0407   26.0945   26.1828   26.2040   26.2383   26.3097   26.4578   26.4685
   26.5318   26.5507   26.5846   26.5968   26.6949   26.9310   26.9483   26.9929   27.0102   27.0341
   27.0762   27.1091   27.2643   27.4023   27.4303   27.4402   27.6050   27.6108   27.7315   27.7538
   27.7561   27.8746   27.8843   28.0631   28.0765   28.1145   28.2693   28.2913   28.3963   28.4059
   28.4219   28.5007   28.5416   28.5933   28.7772   28.7931   28.8483   28.9290   28.9509   29.0585
   29.0654   29.3281   29.3802   29.3914   29.4060   29.4304   29.4721   29.4787   29.5387   29.6369
   29.7505   29.8292   29.9903   30.1114   30.2456   30.2714   30.2781   30.3291   30.3550   30.3975
   30.5172   30.6114   30.7886   30.8702   30.9202   31.0214   31.1244   31.2766   31.4182   31.5132
   31.5189   31.5401   31.5721   31.6275   31.6799   31.7859   31.8164   31.9936   32.1675   32.2152
   32.2469   32.3962   32.4596   32.5632   32.6239   32.7289   32.9609   33.0188   33.0368   33.1520
   33.2162   33.2895   33.3418   33.3688   33.4132   33.5047   33.5447   33.6740   33.7982   33.9089
   34.0337   34.1385   34.2673   34.3973   34.4295   34.8240   34.9462   34.9537   35.0129   35.0258
   35.0921   35.1596   35.1714   35.4391   35.4526   35.4966   35.7693   35.8040   35.8982   35.9951
   36.0465   36.2246   36.2839   36.3534   36.4043   36.5584   36.7077   36.7255   36.7633   36.7772
   36.9634   37.1126   37.2442   37.4064   37.5181   37.5697   37.6410   37.6441   37.7105   37.7264
   37.9534   37.9741   38.1405   38.2741   38.3511   38.4658   38.6525   38.6643   38.7807   38.9593
   39.1159   39.1324   39.1549   39.3194   39.4435   39.6714   39.6858   39.8616   40.0040   40.1103
   40.1830   40.2230   40.3364   40.4634   40.4803   40.5245   40.6020   40.7731   40.8346   40.8798
   40.8868   41.0607   41.1402   41.2433   41.3448   41.3828   41.4520   41.4594   41.7407   41.7684
   41.8056   41.8807   41.8893   41.9945   42.0076   42.1124   42.2357   42.3007   42.3945   42.4080
   42.4952   42.5254   42.6408   42.6440   42.6451   42.6857   42.8599   42.9701   43.1033   43.1338
   43.2405   43.2552   43.3957   43.5216   43.7616   43.8095   43.9605   43.9770   44.1899   44.2550
   44.3711   44.4454   44.5208   44.5315   44.5529   44.7355   44.8670   44.8859   44.9496   45.1654
   45.2796   45.3385   45.4202   45.5769   45.6293   45.7847   45.8207   45.9801   46.0117   46.0926
   46.2331   46.3698   46.4025   46.4029   46.5536   46.6232   46.7165   47.0732   47.1253   47.1758
   47.2490   47.3449   47.5001   47.5210   47.6304   47.9379   47.9814   48.0642   48.1047   48.1671
   48.3444   48.4047   48.6216   48.6973   48.9439   49.1704   49.2435   49.3431   49.4955   49.7409
   49.9433   49.9917   49.9980   50.0156   50.2923   50.4037   50.4547   50.5881   50.7926   50.9318
   51.0856   51.2373   51.4930   51.5063   51.6803   51.8309   52.0753   52.0835   52.1078   52.1527
   52.2733   52.4769   52.8249   53.1463   53.1922   53.2838   53.7561   53.9964   54.1976   54.3242
   54.3412   54.5235   54.8560   54.9426   55.0063   55.3652   55.6321   56.0461   56.2376   56.3549
   56.4555   56.9858   57.1291   57.5476   57.7013   57.8814   57.9824   58.2036   58.7545   58.9657
   59.2776   59.3368   59.4743   59.5026   59.6051   59.7330   59.9632   60.1435   60.3640   60.4162
   60.4874   60.8378   60.8856   61.0197   61.9963   62.0882   62.1319   62.5369   62.6583   63.3542
   63.5547   64.1200   64.3526   64.8561   64.9637   65.1866   65.2932   66.0026   66.2359   66.3875
   66.4632   66.5707   66.7363   67.0912   67.2858   67.4580   67.4902   67.8213   67.9508   68.3624
   68.5538   68.6864   68.7916   69.0609   69.2319   69.3609   69.4257   69.7201   70.1631   70.2191
   70.8127   71.1622   71.6363   71.6537   71.6875   71.7561   71.7752   71.9813   72.1804   72.5326
   72.6045   72.6066   72.7098   73.1061   73.1903   73.2122   73.4533   73.5018   73.7445   73.8786
   74.3059   74.3230   74.5762   75.2441   75.5256   76.5274   76.5951   76.6384   76.8086   77.9997
   78.1445   78.5743   79.3678   81.1011   81.3951   82.0261   82.7853   83.4281   83.5364   83.8586
   85.5342   85.9044   87.1551   87.7401   89.0506   89.1293   90.1595   92.3002   94.0562   94.0771
   96.9281   96.9301   96.9913   99.8763

siesta: PDOS info
siesta: E1 -- E2, sigma [eV], nhist:  -10.000 --   10.000    0.200 500

siesta: Program's energy decomposition (eV):
siesta: Ebs     =     -6225.725692
siesta: Eions   =     27452.691062
siesta: Ena     =      5636.875089
siesta: Ekin    =     11523.153382
siesta: Enl     =     -1549.164795
siesta: Eso     =         0.000000
siesta: Edftu   =         0.000000
siesta: DEna    =       119.243553
siesta: DUscf   =        23.271671
siesta: DUext   =         0.000000
siesta: Exc     =     -6067.447150
siesta: eta*DQ  =         0.000000
siesta: Emadel  =         0.000000
siesta: Emeta   =         0.000000
siesta: Emolmec =         0.000000
siesta: Ekinion =         9.670810
siesta: Eharris =    -17757.088503
siesta: Etot    =    -17757.088503
siesta: FreeEng =    -17757.088503

siesta: Final energy (eV):
siesta:  Band Struct. =   -6225.725692
siesta:       Kinetic =   11523.153382
siesta:       Hartree =   73884.179455
siesta:       Edftu   =       0.000000
siesta:       Eso     =       0.000000
siesta:    Ext. field =       0.000000
siesta:   Exch.-corr. =   -6067.447150
siesta:  Ion-electron = -158504.804165
siesta:       Ion-ion =   61398.159165
siesta:       Ekinion =       9.670810
siesta:         Total =  -17757.088503
siesta:         Fermi =      -4.649505

siesta: Atomic forces (eV/Ang):
siesta:      1    0.438605   -0.664389   -0.700410
siesta:      2    0.171911    0.406389   -1.147692
siesta:      3   -0.231882   -0.589624    0.494104
siesta:      4    0.818277   -0.360288   -1.211653
siesta:      5   -0.760382   -0.099307    0.839932
siesta:      6    0.876536   -0.376824   -1.703453
siesta:      7    2.163447   -1.532217    0.133775
siesta:      8   -1.044748    1.288144    0.534929
siesta:      9   -1.110432   -0.169286    0.049081
siesta:     10   -0.914740    1.168698   -0.181734
siesta:     11   -1.626321   -1.954040   -1.461141
siesta:     12   -0.704158    1.226287   -0.654037
siesta:     13    0.437229    0.237878    0.369306
siesta:     14    1.133033    0.170510    0.624715
siesta:     15    0.451311    0.321903   -0.598227
siesta:     16   -1.172441    0.414533    0.238030
siesta:     17   -0.294408    0.561296    1.253888
siesta:     18   -0.186577   -0.846370   -1.259767
siesta:     19    0.016283   -0.011748    0.451362
siesta:     20    1.707248   -0.285201    0.443680
siesta:     21   -3.719803    0.512858   -1.473903
siesta:     22    0.404130    0.645426   -0.496812
siesta:     23    0.412020    0.111736    0.635816
siesta:     24    1.951121   -1.240704    0.132763
siesta:     25    2.524652    0.399772   -0.626689
siesta:     26    0.591587    0.539124    0.165343
siesta:     27   -0.130405    0.503497    0.209595
siesta:     28   -1.560821   -0.397681    0.932784
siesta:     29   -0.923560   -0.121318    0.009846
siesta:     30    0.384170    1.187156    0.811721
siesta:     31    1.605250   -1.566951   -1.006841
siesta:     32   -0.352589    0.847620   -0.900465
siesta:     33    0.175108   -0.707845   -1.305751
siesta:     34   -0.088618   -0.041068    0.210812
siesta:     35    0.822843   -1.068963    0.907162
siesta:     36   -0.685680    0.334108    1.615743
siesta:     37   -0.545197    0.105595    0.247029
siesta:     38   -0.062462    0.447551   -0.351293
siesta:     39    0.326391    0.149249    1.013089
siesta:     40   -0.040775   -0.002186   -0.144370
siesta:     41    0.658150   -1.080618    0.989282
siesta:     42    0.308732    0.675263    0.362335
siesta:     43   -0.409964    0.771294   -0.312514
siesta:     44    0.229852   -0.311139   -0.278645
siesta:     45    0.865165    0.911608    0.727903
siesta:     46   -0.696939    0.353955   -0.317178
siesta:     47   -0.440195   -0.148592   -0.438954
siesta:     48    0.456287    0.674620    0.125000
siesta:     49    0.966916   -1.195758    0.163593
siesta:     50   -0.367403   -0.227272   -0.159335
siesta:     51    0.238478   -0.308603   -0.280248
siesta:     52   -0.537283    0.933703    0.007075
siesta:     53   -0.299453   -0.387706    0.249505
siesta:     54    0.309307    0.380375    0.101391
siesta:     55    0.133124    0.280672    0.089166
siesta:     56    0.548806   -0.807276    0.314198
siesta:     57   -0.357449   -0.232975   -0.231625
siesta:     58    2.006429   -0.104621    1.147778
siesta:     59   -0.397314   -0.320713   -0.059413
siesta:     60   -0.279137   -0.767540    1.124327
siesta:     61   -1.340940   -0.292481    0.040514
siesta:     62   -0.742641    0.649368   -0.367184
siesta:     63    0.456970   -0.151367    0.048866
siesta:     64    0.309628   -0.730910   -0.308462
siesta:     65   -1.383747    0.114703    1.113242
siesta:     66   -0.378744   -0.443687    0.287076
siesta:     67   -0.102090    0.132167    0.364040
siesta:     68   -0.258418   -0.065442   -0.121678
siesta:     69    0.002342    0.159347    0.453089
siesta:     70    0.143559   -0.295836    0.240910
siesta:     71    0.580156    0.182808   -0.049631
siesta:     72   -0.089203    0.549590   -0.209509
siesta:     73   -0.501761    0.324448   -0.541171
siesta:     74   -0.091718    0.048587   -0.113523
siesta:     75    0.306920    1.041105   -1.239604
siesta:     76   -0.425536   -0.127882    0.106760
siesta:     77   -0.003196   -0.076591   -0.328622
siesta:     78   -0.180677   -1.968242   -0.201542
siesta:     79   -0.978808    0.687492   -0.455207
siesta:     80   -0.319477    1.466108   -0.215168
siesta:     81    0.225082   -1.511889   -0.037515
siesta:     82   -0.607604    0.101134   -0.235690
siesta:     83   -0.444101   -0.412595   -0.765182
siesta:     84    0.334300    1.510278    0.931297
siesta:     85   -0.428800   -0.485006   -0.000796
siesta:     86   -1.975378   -0.381585   -0.832535
siesta:     87    0.521797   -0.568551    0.440842
siesta:     88    0.932221    0.046649    0.377866
siesta:     89   -0.629406   -0.330462   -0.141578
siesta:     90    0.512195    0.633396    0.530467
siesta:     91    0.461728    0.275296    0.137522
siesta:     92    1.052372   -0.360424    0.380346
siesta:     93    0.540040    0.747595    0.216603
siesta:     94   -0.114821   -0.404220   -0.371365
siesta:     95    0.370685    0.217600   -0.088338
siesta:     96    0.394022    0.179085    0.204392
siesta:     97    0.386921    0.253228    0.024417
siesta:     98   -0.675876   -1.963508    1.390438
siesta:     99   -1.042746   -0.403700    1.593755
siesta:    100    0.980144    0.526167   -0.917004
siesta:    101    0.911452    0.583400   -0.971993
siesta:    102   -0.833703   -0.818964    0.077343
siesta:    103   -0.050340    1.135151    1.132518
siesta:    104   -0.954168   -1.236084   -0.178691
siesta:    105    0.468633    0.054875    0.096469
siesta:    106   -0.217650    0.855752    0.448913
siesta:    107    0.459747    0.103276   -0.983064
siesta:    108   -0.951701   -0.724482    2.064048
siesta:    109    0.242028    0.224166    0.465819
siesta:    110    1.718374    1.183065   -2.386281
siesta:    111   -1.714314   -1.483714    1.243681
siesta:    112    0.903551    0.638727   -0.391267
siesta:    113   -0.012433   -0.127308    0.104131
siesta:    114   -0.275126    0.244558   -0.187792
siesta:    115    0.072192    0.731718   -1.198074
siesta:    116   -0.470766    0.230088    0.406753
siesta:    117    0.380340   -0.095747   -0.252993
siesta:    118    0.073123    0.262461    0.031419
siesta:    119   -0.148002   -0.485552   -0.216985
siesta:    120    0.240744    0.144379    0.169329
siesta:    121    0.393478    0.431006   -1.576953
siesta:    122    0.047700    0.061733   -0.093779
siesta:    123    0.128510    1.545481   -0.014180
siesta:    124   -0.381252   -0.888968   -0.493397
siesta:    125    0.843312    1.424488    0.006983
siesta:    126    0.287770   -1.701263    0.141911
siesta:    127   -0.659255   -1.036606    0.145909
siesta:    128    1.951811   -0.440222    0.179295
siesta:    129   -1.779484    0.318269   -0.242287
siesta:    130    0.108532    0.377284   -0.220766
siesta:    131   -0.866436   -0.045756   -0.926253
siesta:    132   -0.335938    0.356120    0.286924
siesta:    133   -0.953433   -0.848810   -0.528831
siesta:    134    0.576835   -0.870118    0.434566
siesta:    135   -0.993382   -0.638878   -0.111937
siesta:    136   -0.140230    0.917927   -0.148842
siesta:    137    2.096623   -1.052094    0.872635
siesta:    138    0.005279    0.855875   -0.081505
siesta:    139    0.414018   -0.247726    0.187377
siesta:    140   -0.189942   -0.264558    0.222242
siesta:    141    0.186305   -0.659365    0.276302
siesta:    142   -0.454729    0.183186   -0.135437
siesta:    143   -0.023808    0.195865    0.059697
siesta:    144    0.709530    0.177342    0.375564
siesta:    145   -0.353703   -0.076689    0.221878
siesta:    146   -0.401589    1.955775   -0.149101
siesta:    147    0.194915   -0.137307   -0.247525
siesta:    148   -0.078635    0.441049   -0.204063
siesta:    149   -0.032863    0.040826    0.341190
siesta:    150    0.597030    0.737874    0.244338
siesta:    151   -1.409856    1.287416    0.017656
siesta:    152   -0.530163    0.180610    0.524624
siesta:    153    1.025929   -0.810095   -0.514916
siesta:    154    0.146636    0.359380   -1.632967
siesta:    155   -1.604840    1.058785   -0.783040
siesta:    156   -0.177859   -0.088276    0.680397
siesta:    157   -0.593113   -0.329094    1.219888
siesta:    158    1.720281    0.181189   -1.555980
siesta:    159   -0.473153   -1.023977    0.794956
siesta:    160   -0.679770    1.830026   -0.206410
siesta:    161    0.551239    0.957582    0.367420
siesta:    162    0.780393   -1.367397    0.540927
siesta:    163    0.286317   -0.443053    0.014143
siesta:    164   -0.359501   -0.232107    0.844124
siesta:    165    0.952826   -0.292219   -2.372108
siesta:    166    0.772876    0.898735    0.057750
siesta:    167   -1.052713   -0.812515    2.275372
siesta:    168   -0.195891    0.188550   -0.013210
siesta:    169    0.563432   -0.331556   -0.385823
siesta:    170    0.039478   -0.891961   -0.523378
siesta:    171    0.192101   -0.092402   -0.073803
siesta:    172   -1.347720    0.166185    1.932594
siesta:    173   -0.234520   -0.205860    0.354743
siesta:    174    0.040066    0.007088   -0.058377
siesta:    175   -0.603267   -0.176251    0.124911
siesta:    176   -0.014431   -0.656193    0.126210
siesta:    177   -0.195990   -0.114027   -0.440135
siesta:    178   -0.369485    0.750948   -0.294035
siesta:    179    0.010725   -0.061836    0.120826
siesta:    180   -0.052874    0.112142   -0.303010
siesta:    181   -0.592223   -0.153651   -0.007541
siesta: ----------------------------------------
siesta:    Tot   -2.679466   -0.068562    0.892091

siesta: Stress tensor (static) (eV/Ang**3):
siesta:    -0.000161   -0.000025   -0.000111
siesta:    -0.000025   -0.000099   -0.000060
siesta:    -0.000111   -0.000060    0.000116

siesta: Cell volume =      50996.385515 Ang**3

siesta: Pressure (static):
siesta:                Solid            Molecule  Units
siesta:           0.00000052         -0.00000259  Ry/Bohr**3
siesta:           0.00004792         -0.00023762  eV/Ang**3
siesta:           0.07677508         -0.38071346  kBar
(Free)E+ p_basis*V_orbitals  =      -17728.931155
(Free)Eharris+ p_basis*V_orbitals  =      -17728.931156
     spin moment: S , {S} =    0.00000       0.0       0.0   0.00000

siesta: Electric dipole (a.u.)  =    2.873895   -1.069084    2.630105
siesta: Electric dipole (Debye) =    7.304718   -2.717343    6.685064

cite: Please see "siesta.bib" for an exhaustive BiBTeX file.
cite: This calculation has made use of the following articles.
cite: Articles are encouraged to be cited in a published work.
        Primary SIESTA paper
          DOI: www.doi.org/10.1088/0953-8984/14/11/302


timer: Elapsed wall time (sec) =    2767.184
timer: CPU execution times (sec):

Routine            Calls   Time/call    Tot.time        %
siesta                 1    2766.793    2766.793   100.00
Setup                  1       0.361       0.361     0.01
bands                  3     116.776     350.328    12.66
KSV_init               1       0.000       0.000     0.00
IterGeom              10     178.722    1787.217    64.60
state_init            10       0.409       4.087     0.15
hsparse               10       0.019       0.189     0.01
overlap               10       0.343       3.434     0.12
Setup_H0              10       9.156      91.556     3.31
naefs                 20       0.002       0.033     0.00
MolMec                20       0.000       0.000     0.00
kinefsm               20       0.213       4.259     0.15
nlefsm                20       1.590      31.805     1.15
DHSCF_Init            10       6.166      61.656     2.23
DHSCF1                10       0.050       0.502     0.02
INITMESH              10       0.000       0.000     0.00
DHSCF2                10       6.115      61.152     2.21
REMESH                10       0.533       5.332     0.19
REORD                682       0.029      19.911     0.72
PHION                 10       3.278      32.779     1.18
COMM_BSC            1046       0.024      24.991     0.90
POISON               136       1.612     219.286     7.93
fft                  272       0.652     177.422     6.41
IterSCF              105      14.930    1567.640    56.66
setup_H              115       5.487     631.019    22.81
DHSCF                126       5.946     749.159    27.08
DHSCF3               126       5.451     686.863    24.83
rhoofd               126       1.034     130.324     4.71
XC                   126       1.017     128.149     4.63
GXC-CellXC           126       0.732      92.223     3.33
cellXC               126       0.732      92.221     3.33
vmat                 125       0.872     109.012     3.94
compute_dm           105       8.903     934.839    33.79
diagon               105       8.901     934.559    33.78
r-eigvec             210       4.115     864.057    31.23
r-buildHS            210       0.003       0.727     0.03
rdiag                212       4.106     870.566    31.46
rdiag1               212       0.127      26.869     0.97
rdiag2               212       0.205      43.503     1.57
rdiag3               212       2.451     519.601    18.78
rdiag4               212       1.318     279.341    10.10
r-buildD             105       0.652      68.482     2.48
MIXER                 95       0.008       0.795     0.03
PostSCF               10      12.380     123.803     4.47
DHSCF4                10       6.230      62.295     2.25
dfscf                 10       5.157      51.568     1.86
overfsm               10       0.091       0.908     0.03
state_analysis        10       0.007       0.070     0.00
siesta_move           10       0.004       0.042     0.00
Analysis               1     979.208     979.208    35.39
c-eigval             152       2.303     350.117    12.65
c-buildHS            152       0.010       1.586     0.06
cdiag                152       2.293     348.531    12.60
cdiag1               152       0.431      65.498     2.37
cdiag2               152       0.595      90.440     3.27
cdiag3               152       1.267     192.590     6.96
pdos                   1     624.201     624.201    22.56
optical                1       0.000       0.000     0.00
  

>> End of run:  15-DEC-2020  17:29:06
Job completed
