Siesta Version  : master-post-4.1-266
Architecture    : unknown
Compiler version: GNU Fortran (Ubuntu 9.3.0-17ubuntu1~20.04) 9.3.0
Compiler flags  : gfortran -O2 -fPIC -ftree-vectorize
PP flags        : -DFC_HAVE_ABORT -DSIESTA__DIAG_2STAGE -DSIESTA__MRRR
Libraries       : libsiestaLAPACK.a libsiestaBLAS.a
Directory       : /home/colinw/siesta/mixture_simulations/Mixture8
SERIAL version

* Running in serial mode
>> Start of run:  14-DEC-2020   8:47:09

                           ***********************       
                           *  WELCOME TO SIESTA  *       
                           ***********************       

reinit: Reading from standard input
reinit: Dumped input in INPUT_TMP.49034
************************** Dump of input data file ****************************
NumberOfAtoms 224
SpinPolarized yes
#FixSpin .true.
#TotalSpin
NumberOfSpecies 4
MD.TypeOfRun  nose
MD.FinalTimeStep 10
MD.LengthTimeStep 1.0  fs
MD.InitialTemperature 300 K
MD.TargetTemperature  300  K
%block ChemicalSpeciesLabel
1  6  C
2  8  O
3  7  N
4  1  H
%endblock ChemicalSpeciesLabel
PAO.BasisSize dzp
 PAO.EnergyShift 0.02 Ry
MeshCutoff          100 Ry
MaxSCFIterations    100
DM.NumberPulay       3
DM.Tolerance         1e-3
WriteDenchar	.true.
%block ProjectedDensityOfStates
-10.0 10.0 0.200 500 eV
%endblock ProjectedDensityOfStates
NetCharge 0.00
%block BandLines
1  1.000  1.000 1.000  L
20 0.00   0.00   0.00  \Gamma
25 2.00   0.000  0.00  X
30 2.00   2.00   2.00  \Gamma
%endblock BandLines
LongOutput .true.
WriteCoorXmol .true.
LatticeConstant 1 Ang
%block LatticeVectors
  25.712028 0.0 0.0
  0.0 37.06897 0.0
  0.0 0.0 33.442021
%endblock LatticeVectors
#UseSaveData .true.
%block kgrid_Monkhorst_Pack
1 0 0 0.0
 0 1 0 0.0
 0 0 1 0.0
%endblock kgrid_Monkhorst_Pack
WriteMDXmol .true.
AtomicCoordinatesFormat Ang
%block AtomicCoordinatesAndAtomicSpecies
24.182944  11.246320 5.012599  1
22.898218  10.435142 5.146824  1
21.954996  10.631207 3.947183  1
20.628824  9.858779 3.972161  1
19.419256  10.581041 3.956222  1
19.489038  11.951640 4.022599  2
18.152498  9.948163 3.866718  1
16.933942  10.661893 3.825030  1
15.717439  9.983355 3.758361  1
15.711040  8.592752 3.699623  1
16.880123  7.848530 3.705575  1
16.804833  6.516555 3.630303  3
17.942716  5.774357 3.663971  1
17.726813  4.274572 3.605848  1
17.649970  3.652891 2.189704  1
18.921864  3.855274 1.363049  1
17.359376  2.149216 2.294676  1
19.232825  6.356800 3.770394  1
20.435621  5.610892 3.805638  1
21.689951  6.228148 3.809486  1
22.977541  5.426592 3.747822  1
23.925240  5.849650 2.592970  1
25.226848  5.012821 2.494237  1
26.113352  5.434278 1.309748  1
26.064385  5.130077 3.767658  1
21.720065  7.616703 3.904213  1
20.572059  8.433055 3.912266  1
19.305501  7.770782 3.830441  1
18.117873  8.538502 3.802807  1
24.919540  10.896474 5.744708  4
24.000312  12.307978 5.200967  4
24.630090  11.139633 4.018246  4
22.392625  10.698455 6.081467  4
23.203719  9.395267 5.259169  4
22.466888  10.366733 3.012774  4
21.767368  11.708323 3.861266  4
18.836354  12.241415 4.682079  4
16.912902  11.745526 3.834373  4
14.781355  10.537668 3.747494  4
14.756274  8.068309 3.646593  4
16.766614  4.073644 4.109731  4
18.463905  3.751148 4.217186  4
16.816644  4.112872 1.643400  4
19.821695  3.651465 1.947582  4
18.976573  4.879269 0.980521  4
18.952759  3.179418 0.501762  4
18.203461  1.608653 2.737684  4
17.174653  1.722785 1.301946  4
16.472043  1.956643 2.906162  4
20.411781  4.528985 3.803896  4
22.744580  4.359952 3.644483  4
23.479743  5.546393 4.715022  4
24.202338  6.903676 2.718857  4
23.378727  5.788008 1.642749  4
24.959311  3.958879 2.347858  4
26.239054  6.521124 1.261184  4
25.702485  5.089810 0.355648  4
27.116367  4.995998 1.400273  4
26.316353  6.176588 3.970272  4
27.001672  4.571467 3.669279  4
25.536882  4.722547 4.632754  4
22.708324  8.065558 3.953552  4
21.862281  6.410915 13.398586  1
22.818464  6.216868 12.240697  1
22.037405  6.249385 10.910192  1
21.482315  7.707336 10.856039  1
20.361704  7.893705 11.905303  1
20.621346  7.147025 13.216748  1
19.549906  7.071067 14.155394  1
19.734348  6.204235 15.229509  1
21.023363  5.627956 15.368537  1
22.145357  5.702600 14.570067  1
21.140341  4.875083 16.510436  1
22.301815  4.322347 16.954589  1
23.435060  4.321032 16.125641  1
23.298702  5.036339 14.930680  3
18.635790  5.962050 16.190780  1
18.855466  5.134061 17.351991  1
20.108840  4.653708 17.420508  1
18.375904  7.714006 14.050349  3
17.398282  7.514751 15.006712  1
17.445836  6.643101 16.135236  1
16.480908  6.515312 17.280529  1
16.920546  5.878713 18.504606  1
18.105004  5.170769 18.543206  1
18.804740  4.817535 19.752186  1
20.014605  4.110748 19.780955  1
20.672904  4.138576 18.568084  1
15.192982  7.055564 17.372253  1
14.446788  7.120335 18.521833  3
14.998281  6.673063 19.679036  1
16.251035  6.095085 19.725798  1
16.907337  5.738019 21.049172  1
18.432102  5.639513 20.979062  1
20.980265  5.090002 10.835059  1
21.588165  3.672051 10.939742  1
20.553363  2.535949 10.950611  1
19.585066  2.619827 12.123108  1
21.092496  8.247205 9.467534  1
22.262358  8.301797 8.484601  1
24.780599  3.679279 16.401099  1
24.792717  2.305809 17.125739  1
26.194115  1.748319 17.289076  1
24.211117  2.307678 18.522866  1
19.195290  7.027871 21.041697  1
18.932421  8.154041 20.013369  1
19.434927  7.907986 18.617466  1
14.102364  6.746145 20.891885  1
14.228644  8.059264 21.679118  1
13.307802  8.104223 22.922425  1
13.652975  6.984423 23.910100  1
13.323850  9.475936 23.644878  1
14.668664  9.853306 24.277313  1
14.625363  11.191978 24.999946  1
21.979008  3.940865 18.241588  3
14.441537  7.556670 16.171262  1
23.344193  5.261179 12.322868  4
23.591304  6.993552 12.268377  4
22.754096  6.093310 10.098369  4
22.300587  8.371849 11.175678  4
19.414307  7.534935 11.482570  4
20.241686  8.962737 12.122248  4
16.557037  8.174761 14.840588  4
20.528212  3.840848 20.696241  4
16.666403  6.472968 21.824359  4
16.502209  4.771626 21.375829  4
18.763851  5.090656 21.878472  4
20.400729  5.165178 9.908934  4
20.252845  5.190187 11.643908  4
22.178999  3.570376 11.856566  4
22.274280  3.512878 10.100384  4
21.085404  1.576725 11.012271  4
19.994108  2.523896 10.009047  4
20.124536  2.660791 13.075123  4
18.926112  1.745931 12.142660  4
18.948176  3.505179 12.047755  4
20.729392  9.278199 9.585489  4
20.270736  7.669483 9.035244  4
23.038622  8.993178 8.832845  4
21.920509  8.658046 7.507025  4
22.722082  7.322544 8.332235  4
25.408110  4.408313 16.927138  4
25.258661  3.521460 15.421318  4
24.195296  1.606627 16.527780  4
26.821474  2.442595 17.858012  4
26.650510  1.543302 16.321803  4
26.146866  0.807075 17.851969  4
24.454699  3.238141 19.056696  4
24.477046  1.472491 19.171968  4
23.153486  2.113746 18.377554  4
20.277952  6.838439 21.057759  4
18.960893  7.474410 22.017984  4
19.433290  9.069922 20.332074  4
17.858824  8.367982 19.976557  4
20.392754  7.389247 18.541702  4
19.358903  8.740545 17.916714  4
18.691982  7.286744 18.211476  4
14.309236  5.878442 21.529336  4
13.072772  6.613844 20.543867  4
13.990984  8.897911 21.013097  4
15.269024  8.202439 21.991160  4
12.276310  7.941517 22.579773  4
14.729578  6.953597 24.108728  4
13.355496  6.006700 23.520511  4
13.132607  7.124123 24.863070  4
12.564173  9.451508 24.438974  4
13.006675  10.260086 22.946487  4
15.450553  9.888712 23.512644  4
14.960781  9.096772 25.012879  4
14.397321  12.015344 24.316267  4
15.599397  11.392751 25.459467  4
13.876027  11.182186 25.797669  4
22.603096  3.682743 18.979612  4
13.367936  7.518895 16.357376  4
14.634636  6.914849 15.304696  4
14.716513  8.591715 15.951169  4
29.043872  24.122487 4.906777  1
28.291733  24.954549 3.853836  1
29.301134  25.827332 3.100932  1
27.515701  24.026832 2.896921  1
26.503487  23.135384 3.477318  3
25.331453  23.332710 4.134170  1
24.569874  22.364223 4.221101  2
24.909059  24.721598 4.651976  1
24.272513  24.614009 6.065182  1
25.294602  24.082764 7.079407  1
23.728068  25.955574 6.579732  1
23.950669  25.224733 3.669041  3
24.208720  25.901017 2.510044  1
23.338069  25.922091 1.643848  2
25.598874  26.540539 2.279884  1
25.426875  27.948659 1.642938  1
24.675245  28.902047 2.578162  1
26.771381  28.584680 1.266906  1
26.286023  25.652174 1.342670  3
27.027238  24.533982 1.523294  1
27.236618  23.846307 0.516165  2
29.587721  24.771805 5.601279  4
29.774084  23.453244 4.437115  4
28.354689  23.510839 5.497696  4
27.635660  25.629406 4.398865  4
29.988338  25.219759 2.503127  4
29.897635  26.422257 3.801317  4
28.794821  26.528135 2.431854  4
28.288660  23.302110 2.587579  4
26.536138  22.187303 3.112663  4
25.754022  25.391036 4.713507  4
23.430530  23.910273 6.036246  4
26.130739  24.779745 7.203578  4
25.701176  23.115321 6.770849  4
24.826471  23.940221 8.059608  4
24.475760  26.752827 6.508116  4
23.431840  25.874496 7.633073  4
22.839768  26.266057 6.020681  4
23.065602  24.727151 3.616004  4
26.169393  26.629017 3.199160  4
24.840834  27.859403 0.717844  4
25.229835  29.063808 3.508243  4
23.682919  28.518497 2.833167  4
24.531026  29.876045 2.096958  4
27.437454  28.650333 2.133280  4
26.623969  29.599946 0.880578  4
27.279430  28.012669 0.484057  4
25.936752  25.686894 0.388823  4
 %endblock AtomicCoordinatesAndAtomicSpecies
************************** End of input data file *****************************

reinit: -----------------------------------------------------------------------
reinit: System Name: 
reinit: -----------------------------------------------------------------------
reinit: System Label: siesta
reinit: -----------------------------------------------------------------------

initatom: Reading input for the pseudopotentials and atomic orbitals ----------
Species number:   1 Atomic number:    6 Label: C
Species number:   2 Atomic number:    8 Label: O
Species number:   3 Atomic number:    7 Label: N
Species number:   4 Atomic number:    1 Label: H

Ground state valence configuration:   2s02  2p02
Reading pseudopotential information in formatted form from C.psf

Valence configuration for pseudopotential generation:
2s( 2.00) rc: 1.54
2p( 2.00) rc: 1.54
3d( 0.00) rc: 1.54
4f( 0.00) rc: 1.54
Ground state valence configuration:   2s02  2p04
Reading pseudopotential information in formatted form from O.psf

Valence configuration for pseudopotential generation:
2s( 2.00) rc: 1.47
2p( 4.00) rc: 1.47
3d( 0.00) rc: 1.47
4f( 0.00) rc: 1.47
Ground state valence configuration:   2s02  2p03
Reading pseudopotential information in formatted form from N.psf

Valence configuration for pseudopotential generation:
2s( 2.00) rc: 1.48
2p( 3.00) rc: 1.48
3d( 0.00) rc: 1.48
4f( 0.00) rc: 1.48
Ground state valence configuration:   1s01
Reading pseudopotential information in formatted form from H.psf

Valence configuration for pseudopotential generation:
1s( 1.00) rc: 1.31
2p( 0.00) rc: 1.31
3d( 0.00) rc: 0.37
4f( 0.00) rc: 1.31
For C, standard SIESTA heuristics set lmxkb to 3
 (one more than the basis l, including polarization orbitals).
Use PS.lmax or PS.KBprojectors blocks to override.
For O, standard SIESTA heuristics set lmxkb to 3
 (one more than the basis l, including polarization orbitals).
Use PS.lmax or PS.KBprojectors blocks to override.
For N, standard SIESTA heuristics set lmxkb to 3
 (one more than the basis l, including polarization orbitals).
Use PS.lmax or PS.KBprojectors blocks to override.
For H, standard SIESTA heuristics set lmxkb to 2
 (one more than the basis l, including polarization orbitals).
Use PS.lmax or PS.KBprojectors blocks to override.

<basis_specs>
===============================================================================
C                    Z=   6    Mass=  12.010        Charge= 0.17977+309
Lmxo=1 Lmxkb= 3    BasisType=split      Semic=F
L=0  Nsemic=0  Cnfigmx=2
          i=1  nzeta=2  polorb=0  (2s)
            splnorm:   0.15000    
               vcte:    0.0000    
               rinn:    0.0000    
               qcoe:    0.0000    
               qyuk:    0.0000    
               qwid:   0.10000E-01
                rcs:    0.0000      0.0000    
            lambdas:    1.0000      1.0000    
L=1  Nsemic=0  Cnfigmx=2
          i=1  nzeta=2  polorb=1  (2p)
            splnorm:   0.15000    
               vcte:    0.0000    
               rinn:    0.0000    
               qcoe:    0.0000    
               qyuk:    0.0000    
               qwid:   0.10000E-01
                rcs:    0.0000      0.0000    
            lambdas:    1.0000      1.0000    
-------------------------------------------------------------------------------
L=0  Nkbl=1  erefs: 0.17977+309
L=1  Nkbl=1  erefs: 0.17977+309
L=2  Nkbl=1  erefs: 0.17977+309
L=3  Nkbl=1  erefs: 0.17977+309
===============================================================================
</basis_specs>

atom: Called for C                     (Z =   6)

read_vps: Pseudopotential generation method:
read_vps: ATM3      Troullier-Martins                       
Valence charge for ps generation:    4.00000

read_vps: Pseudopotential includes a core correction:
read_vps: Pseudo-core for xc-correction

xc_check: Exchange-correlation functional:
xc_check: Ceperley-Alder
xc_check: WARNING: Pseudopotential generated with GGA PBE functional
V l=0 = -2*Zval/r beyond r=  1.5227
V l=1 = -2*Zval/r beyond r=  1.5227
V l=2 = -2*Zval/r beyond r=  1.5227
V l=3 = -2*Zval/r beyond r=  1.5038
All V_l potentials equal beyond r=  1.5227
This should be close to max(r_c) in ps generation
All pots = -2*Zval/r beyond r=  1.5227

VLOCAL1: 99.0% of the norm of Vloc inside     18.722 Ry
VLOCAL1: 99.9% of the norm of Vloc inside     42.668 Ry
atom: Maximum radius for 4*pi*r*r*local-pseudopot. charge    1.83678
atom: Maximum radius for r*vlocal+2*Zval:    1.58088

KBgen: Kleinman-Bylander projectors: 
GHOST: No ghost state for L =  0
   l= 0   rc=  1.704034   el= -0.998584   Ekb=  5.327875   kbcos=  0.314897
GHOST: No ghost state for L =  1
   l= 1   rc=  1.704034   el= -0.383998   Ekb= -3.785479   kbcos= -0.363289
GHOST: No ghost state for L =  2
   l= 2   rc=  1.791422   el=  0.002326   Ekb= -0.971263   kbcos= -0.009325
GHOST: No ghost state for L =  3
   l= 3   rc=  1.859892   el=  0.003420   Ekb= -0.399672   kbcos= -0.001232

KBgen: Total number of  Kleinman-Bylander projectors:   16
atom: -------------------------------------------------------------------------

atom: SANKEY-TYPE ORBITALS:
atom: Selected multiple-zeta basis: split     

SPLIT: Orbitals with angular momentum L= 0

SPLIT: Basis orbitals for state 2s

SPLIT: PAO cut-off radius determined from an
SPLIT: energy shift=  0.020000 Ry

   izeta = 1
                 lambda =    1.000000
                     rc =    4.191849
                 energy =   -0.980459
                kinetic =    0.881507
    potential(screened) =   -1.861966
       potential(ionic) =   -5.449625

   izeta = 2
                 rmatch =    3.431921
              splitnorm =    0.150000
                 energy =   -0.849396
                kinetic =    1.300036
    potential(screened) =   -2.149433
       potential(ionic) =   -5.962781

SPLIT: Orbitals with angular momentum L= 1

SPLIT: Basis orbitals for state 2p

SPLIT: PAO cut-off radius determined from an
SPLIT: energy shift=  0.020000 Ry

   izeta = 1
                 lambda =    1.000000
                     rc =    4.993604
                 energy =   -0.366127
                kinetic =    2.463190
    potential(screened) =   -2.829316
       potential(ionic) =   -6.291180

   izeta = 2
                 rmatch =    3.518811
              splitnorm =    0.150000
                 energy =   -0.204163
                kinetic =    3.723883
    potential(screened) =   -3.928045
       potential(ionic) =   -7.766545

POLgen: Perturbative polarization orbital with L=  2

POLgen: Polarization orbital for state 2p

   izeta = 1
                     rc =    4.993604
                 energy =    1.232619
                kinetic =    2.527283
    potential(screened) =   -1.294664
       potential(ionic) =   -4.203101
atom: Total number of Sankey-type orbitals: 13

atm_pop: Valence configuration (for local Pseudopot. screening):
 2s( 2.00)                                                            
 2p( 2.00)                                                            
Vna: chval, zval:    4.00000   4.00000

Vna:  Cut-off radius for the neutral-atom potential:   4.993604
comcore: Pseudo-core radius Rcore=  1.791422

atom: _________________________________________________________________________

<basis_specs>
===============================================================================
O                    Z=   8    Mass=  16.000        Charge= 0.17977+309
Lmxo=1 Lmxkb= 3    BasisType=split      Semic=F
L=0  Nsemic=0  Cnfigmx=2
          i=1  nzeta=2  polorb=0  (2s)
            splnorm:   0.15000    
               vcte:    0.0000    
               rinn:    0.0000    
               qcoe:    0.0000    
               qyuk:    0.0000    
               qwid:   0.10000E-01
                rcs:    0.0000      0.0000    
            lambdas:    1.0000      1.0000    
L=1  Nsemic=0  Cnfigmx=2
          i=1  nzeta=2  polorb=1  (2p)
            splnorm:   0.15000    
               vcte:    0.0000    
               rinn:    0.0000    
               qcoe:    0.0000    
               qyuk:    0.0000    
               qwid:   0.10000E-01
                rcs:    0.0000      0.0000    
            lambdas:    1.0000      1.0000    
-------------------------------------------------------------------------------
L=0  Nkbl=1  erefs: 0.17977+309
L=1  Nkbl=1  erefs: 0.17977+309
L=2  Nkbl=1  erefs: 0.17977+309
L=3  Nkbl=1  erefs: 0.17977+309
===============================================================================
</basis_specs>

atom: Called for O                     (Z =   8)

read_vps: Pseudopotential generation method:
read_vps: ATM3      Troullier-Martins                       
Valence charge for ps generation:    6.00000

read_vps: Pseudopotential includes a core correction:
read_vps: Pseudo-core for xc-correction

xc_check: Exchange-correlation functional:
xc_check: Ceperley-Alder
xc_check: WARNING: Pseudopotential generated with GGA PBE functional
V l=0 = -2*Zval/r beyond r=  1.4482
V l=1 = -2*Zval/r beyond r=  1.4482
V l=2 = -2*Zval/r beyond r=  1.4482
V l=3 = -2*Zval/r beyond r=  1.4482
All V_l potentials equal beyond r=  1.4482
This should be close to max(r_c) in ps generation
All pots = -2*Zval/r beyond r=  1.4482

VLOCAL1: 99.0% of the norm of Vloc inside     20.696 Ry
VLOCAL1: 99.9% of the norm of Vloc inside     47.167 Ry
atom: Maximum radius for 4*pi*r*r*local-pseudopot. charge    1.74697
atom: Maximum radius for r*vlocal+2*Zval:    1.52250

KBgen: Kleinman-Bylander projectors: 
GHOST: No ghost state for L =  0
   l= 0   rc=  1.620715   el= -1.738829   Ekb=  4.895054   kbcos=  0.290645
GHOST: No ghost state for L =  1
   l= 1   rc=  1.600578   el= -0.650915   Ekb= -6.916539   kbcos= -0.494696
GHOST: No ghost state for L =  2
   l= 2   rc=  1.703827   el=  0.002386   Ekb= -1.538961   kbcos= -0.006789
GHOST: No ghost state for L =  3
   l= 3   rc=  1.746967   el=  0.003508   Ekb= -0.568530   kbcos= -0.000966

KBgen: Total number of  Kleinman-Bylander projectors:   16
atom: -------------------------------------------------------------------------

atom: SANKEY-TYPE ORBITALS:
atom: Selected multiple-zeta basis: split     

SPLIT: Orbitals with angular momentum L= 0

SPLIT: Basis orbitals for state 2s

SPLIT: PAO cut-off radius determined from an
SPLIT: energy shift=  0.020000 Ry

   izeta = 1
                 lambda =    1.000000
                     rc =    3.305093
                 energy =   -1.720120
                kinetic =    1.583509
    potential(screened) =   -3.303629
       potential(ionic) =  -11.248859

   izeta = 2
                 rmatch =    2.510382
              splitnorm =    0.150000
                 energy =   -1.472890
                kinetic =    2.379100
    potential(screened) =   -3.851990
       potential(ionic) =  -12.389687

SPLIT: Orbitals with angular momentum L= 1

SPLIT: Basis orbitals for state 2p

SPLIT: PAO cut-off radius determined from an
SPLIT: energy shift=  0.020000 Ry

   izeta = 1
                 lambda =    1.000000
                     rc =    3.937239
                 energy =   -0.631844
                kinetic =    4.616405
    potential(screened) =   -5.248250
       potential(ionic) =  -12.927368

   izeta = 2
                 rmatch =    2.573941
              splitnorm =    0.150000
                 energy =   -0.344812
                kinetic =    6.889580
    potential(screened) =   -7.234392
       potential(ionic) =  -15.793960

POLgen: Perturbative polarization orbital with L=  2

POLgen: Polarization orbital for state 2p

   izeta = 1
                     rc =    3.937239
                 energy =    2.368129
                kinetic =    4.725445
    potential(screened) =   -2.357315
       potential(ionic) =   -8.649185
atom: Total number of Sankey-type orbitals: 13

atm_pop: Valence configuration (for local Pseudopot. screening):
 2s( 2.00)                                                            
 2p( 4.00)                                                            
Vna: chval, zval:    6.00000   6.00000

Vna:  Cut-off radius for the neutral-atom potential:   3.937239
comcore: Pseudo-core radius Rcore=  1.377587

atom: _________________________________________________________________________

<basis_specs>
===============================================================================
N                    Z=   7    Mass=  14.010        Charge= 0.17977+309
Lmxo=1 Lmxkb= 3    BasisType=split      Semic=F
L=0  Nsemic=0  Cnfigmx=2
          i=1  nzeta=2  polorb=0  (2s)
            splnorm:   0.15000    
               vcte:    0.0000    
               rinn:    0.0000    
               qcoe:    0.0000    
               qyuk:    0.0000    
               qwid:   0.10000E-01
                rcs:    0.0000      0.0000    
            lambdas:    1.0000      1.0000    
L=1  Nsemic=0  Cnfigmx=2
          i=1  nzeta=2  polorb=1  (2p)
            splnorm:   0.15000    
               vcte:    0.0000    
               rinn:    0.0000    
               qcoe:    0.0000    
               qyuk:    0.0000    
               qwid:   0.10000E-01
                rcs:    0.0000      0.0000    
            lambdas:    1.0000      1.0000    
-------------------------------------------------------------------------------
L=0  Nkbl=1  erefs: 0.17977+309
L=1  Nkbl=1  erefs: 0.17977+309
L=2  Nkbl=1  erefs: 0.17977+309
L=3  Nkbl=1  erefs: 0.17977+309
===============================================================================
</basis_specs>

atom: Called for N                     (Z =   7)

read_vps: Pseudopotential generation method:
read_vps: ATM3      Troullier-Martins                       
Valence charge for ps generation:    5.00000

read_vps: Pseudopotential includes a core correction:
read_vps: Pseudo-core for xc-correction

xc_check: Exchange-correlation functional:
xc_check: Ceperley-Alder
xc_check: WARNING: Pseudopotential generated with GGA PBE functional
V l=0 = -2*Zval/r beyond r=  1.4606
V l=1 = -2*Zval/r beyond r=  1.4606
V l=2 = -2*Zval/r beyond r=  1.4606
V l=3 = -2*Zval/r beyond r=  1.4606
All V_l potentials equal beyond r=  1.4606
This should be close to max(r_c) in ps generation
All pots = -2*Zval/r beyond r=  1.4606

VLOCAL1: 99.0% of the norm of Vloc inside     20.347 Ry
VLOCAL1: 99.9% of the norm of Vloc inside     46.372 Ry
atom: Maximum radius for 4*pi*r*r*local-pseudopot. charge    1.76189
atom: Maximum radius for r*vlocal+2*Zval:    1.53550

KBgen: Kleinman-Bylander projectors: 
GHOST: No ghost state for L =  0
   l= 0   rc=  1.634559   el= -1.348537   Ekb=  5.297520   kbcos=  0.333054
GHOST: No ghost state for L =  1
   l= 1   rc=  1.614250   el= -0.512415   Ekb= -5.262296   kbcos= -0.428933
GHOST: No ghost state for L =  2
   l= 2   rc=  1.718383   el=  0.002346   Ekb= -1.271998   kbcos= -0.007619
GHOST: No ghost state for L =  3
   l= 3   rc=  1.761893   el=  0.003449   Ekb= -0.494630   kbcos= -0.001017

KBgen: Total number of  Kleinman-Bylander projectors:   16
atom: -------------------------------------------------------------------------

atom: SANKEY-TYPE ORBITALS:
atom: Selected multiple-zeta basis: split     

SPLIT: Orbitals with angular momentum L= 0

SPLIT: Basis orbitals for state 2s

SPLIT: PAO cut-off radius determined from an
SPLIT: energy shift=  0.020000 Ry

   izeta = 1
                 lambda =    1.000000
                     rc =    3.683980
                 energy =   -1.330014
                kinetic =    1.203086
    potential(screened) =   -2.533100
       potential(ionic) =   -8.093205

   izeta = 2
                 rmatch =    2.905100
              splitnorm =    0.150000
                 energy =   -1.134717
                kinetic =    1.810562
    potential(screened) =   -2.945280
       potential(ionic) =   -8.899916

SPLIT: Orbitals with angular momentum L= 1

SPLIT: Basis orbitals for state 2p

SPLIT: PAO cut-off radius determined from an
SPLIT: energy shift=  0.020000 Ry

   izeta = 1
                 lambda =    1.000000
                     rc =    4.388595
                 energy =   -0.493943
                kinetic =    3.501321
    potential(screened) =   -3.995264
       potential(ionic) =   -9.374806

   izeta = 2
                 rmatch =    2.978652
              splitnorm =    0.150000
                 energy =   -0.289183
                kinetic =    5.180785
    potential(screened) =   -5.469968
       potential(ionic) =  -11.438899

POLgen: Perturbative polarization orbital with L=  2

POLgen: Polarization orbital for state 2p

   izeta = 1
                     rc =    4.388595
                 energy =    1.759924
                kinetic =    3.542120
    potential(screened) =   -1.782196
       potential(ionic) =   -6.226799
atom: Total number of Sankey-type orbitals: 13

atm_pop: Valence configuration (for local Pseudopot. screening):
 2s( 2.00)                                                            
 2p( 3.00)                                                            
Vna: chval, zval:    5.00000   5.00000

Vna:  Cut-off radius for the neutral-atom potential:   4.388595
comcore: Pseudo-core radius Rcore=  1.554824

atom: _________________________________________________________________________

<basis_specs>
===============================================================================
H                    Z=   1    Mass=  1.0100        Charge= 0.17977+309
Lmxo=0 Lmxkb= 2    BasisType=split      Semic=F
L=0  Nsemic=0  Cnfigmx=1
          i=1  nzeta=2  polorb=1  (1s)
            splnorm:   0.15000    
               vcte:    0.0000    
               rinn:    0.0000    
               qcoe:    0.0000    
               qyuk:    0.0000    
               qwid:   0.10000E-01
                rcs:    0.0000      0.0000    
            lambdas:    1.0000      1.0000    
-------------------------------------------------------------------------------
L=0  Nkbl=1  erefs: 0.17977+309
L=1  Nkbl=1  erefs: 0.17977+309
L=2  Nkbl=1  erefs: 0.17977+309
===============================================================================
</basis_specs>

atom: Called for H                     (Z =   1)

read_vps: Pseudopotential generation method:
read_vps: ATM3      Troullier-Martins                       
Valence charge for ps generation:    1.00000

xc_check: Exchange-correlation functional:
xc_check: Ceperley-Alder
xc_check: WARNING: Pseudopotential generated with GGA PBE functional
V l=0 = -2*Zval/r beyond r=  1.2977
V l=1 = -2*Zval/r beyond r=  1.2815
V l=2 = -2*Zval/r beyond r=  1.2656
All V_l potentials equal beyond r=  1.2977
This should be close to max(r_c) in ps generation
All pots = -2*Zval/r beyond r=  1.2977

VLOCAL1: 99.0% of the norm of Vloc inside     25.776 Ry
VLOCAL1: 99.9% of the norm of Vloc inside     58.745 Ry
atom: Maximum radius for 4*pi*r*r*local-pseudopot. charge    1.52711
atom: Maximum radius for r*vlocal+2*Zval:    1.28155

KBgen: Kleinman-Bylander projectors: 
GHOST: No ghost state for L =  0
   l= 0   rc=  1.434438   el= -0.456815   Ekb= -1.960338   kbcos= -0.349997
GHOST: No ghost state for L =  1
   l= 1   rc=  1.508111   el=  0.001431   Ekb= -0.423993   kbcos= -0.025386
GHOST: No ghost state for L =  2
   l= 2   rc=  1.546352   el=  0.002365   Ekb= -0.376562   kbcos= -0.002012

KBgen: Total number of  Kleinman-Bylander projectors:    9
atom: -------------------------------------------------------------------------

atom: SANKEY-TYPE ORBITALS:
atom: Selected multiple-zeta basis: split     

SPLIT: Orbitals with angular momentum L= 0

SPLIT: Basis orbitals for state 1s

SPLIT: PAO cut-off radius determined from an
SPLIT: energy shift=  0.020000 Ry

   izeta = 1
                 lambda =    1.000000
                     rc =    4.828263
                 energy =   -0.438372
                kinetic =    0.921576
    potential(screened) =   -1.359947
       potential(ionic) =   -1.906664

   izeta = 2
                 rmatch =    3.903467
              splitnorm =    0.150000
                 energy =   -0.330751
                kinetic =    1.475177
    potential(screened) =   -1.805928
       potential(ionic) =   -2.389550

POLgen: Perturbative polarization orbital with L=  1

POLgen: Polarization orbital for state 1s

   izeta = 1
                     rc =    4.828263
                 energy =    0.711580
                kinetic =    1.391494
    potential(screened) =   -0.679914
       potential(ionic) =   -1.168115
atom: Total number of Sankey-type orbitals:  5

atm_pop: Valence configuration (for local Pseudopot. screening):
 1s( 1.00)                                                            
Vna: chval, zval:    1.00000   1.00000

Vna:  Cut-off radius for the neutral-atom potential:   4.828263

atom: _________________________________________________________________________

prinput: Basis input ----------------------------------------------------------

PAO.BasisType split     

%block ChemicalSpeciesLabel
    1    6 C                       # Species index, atomic number, species label
    2    8 O                       # Species index, atomic number, species label
    3    7 N                       # Species index, atomic number, species label
    4    1 H                       # Species index, atomic number, species label
%endblock ChemicalSpeciesLabel

%block PAO.Basis                 # Define Basis set
C                     2                    # Species label, number of l-shells
 n=2   0   2                         # n, l, Nzeta 
   4.192      3.432   
   1.000      1.000   
 n=2   1   2 P   1                   # n, l, Nzeta, Polarization, NzetaPol
   4.994      3.519   
   1.000      1.000   
O                     2                    # Species label, number of l-shells
 n=2   0   2                         # n, l, Nzeta 
   3.305      2.510   
   1.000      1.000   
 n=2   1   2 P   1                   # n, l, Nzeta, Polarization, NzetaPol
   3.937      2.574   
   1.000      1.000   
N                     2                    # Species label, number of l-shells
 n=2   0   2                         # n, l, Nzeta 
   3.684      2.905   
   1.000      1.000   
 n=2   1   2 P   1                   # n, l, Nzeta, Polarization, NzetaPol
   4.389      2.979   
   1.000      1.000   
H                     1                    # Species label, number of l-shells
 n=1   0   2 P   1                   # n, l, Nzeta, Polarization, NzetaPol
   4.828      3.903   
   1.000      1.000   
%endblock PAO.Basis

prinput: ----------------------------------------------------------------------

coor:   Atomic-coordinates input format  =     Cartesian coordinates
coor:                                          (in Angstroms)

siesta: Atomic coordinates (Bohr) and species
siesta:     45.69916  21.25247   9.47244  1        1
siesta:     43.27138  19.71957   9.72609  1        2
siesta:     41.48895  20.09008   7.45910  1        3
siesta:     38.98284  18.63040   7.50630  1        4
siesta:     36.69709  19.99528   7.47618  1        5
siesta:     36.82896  22.58534   7.60161  2        6
siesta:     34.30326  18.79931   7.30704  1        7
siesta:     32.00053  20.14807   7.22826  1        8
siesta:     29.70167  18.86581   7.10228  1        9
siesta:     29.68957  16.23795   6.99128  1       10
siesta:     31.89882  14.83158   7.00252  1       11
siesta:     31.75654  12.31451   6.86028  3       12
siesta:     33.90683  10.91196   6.92390  1       13
siesta:     33.49883   8.07777   6.81407  1       14
siesta:     33.35362   6.90297   4.13794  1       15
siesta:     35.75715   7.28541   2.57579  1       16
siesta:     32.80448   4.06143   4.33631  1       17
siesta:     36.34479  12.01262   7.12501  1       18
siesta:     38.61774  10.60305   7.19162  1       19
siesta:     40.98808  11.76950   7.19889  1       20
siesta:     43.42128  10.25478   7.08236  1       21
siesta:     45.21217  11.05424   4.90001  1       22
siesta:     47.67185   9.47286   4.71343  1       23
siesta:     49.34710  10.26930   2.47507  1       24
siesta:     49.25457   9.69444   7.11984  1       25
siesta:     41.04499  14.39349   7.37790  1       26
siesta:     38.87557  15.93617   7.39311  1       27
siesta:     36.48212  14.68466   7.23849  1       28
siesta:     34.23783  16.13544   7.18627  1       29
siesta:     47.09112  20.59136  10.85593  4       30
siesta:     45.35403  23.25872   9.82841  4       31
siesta:     46.54414  21.05086   7.59339  4       32
siesta:     42.31595  20.21716  11.49231  4       33
siesta:     43.84869  17.75449   9.93839  4       34
siesta:     42.45628  19.59029   5.69332  4       35
siesta:     41.13438  22.12553   7.29674  4       36
siesta:     35.59556  23.13293   8.84785  4       37
siesta:     31.96077  22.19584   7.24592  4       38
siesta:     27.93272  19.91331   7.08174  4       39
siesta:     27.88533  15.24690   6.89106  4       40
siesta:     31.68432   7.69807   7.76627  4       41
siesta:     34.89174   7.08865   7.96933  4       42
siesta:     31.77886   7.77220   3.10558  4       43
siesta:     37.45759   6.90027   3.68040  4       44
siesta:     35.86054   9.22049   1.85292  4       45
siesta:     35.81554   6.00823   0.94819  4       46
siesta:     34.39957   3.03991   5.17348  4       47
siesta:     32.45540   3.25559   2.46032  4       48
siesta:     31.12766   3.69752   5.49185  4       49
siesta:     38.57269   8.55854   7.18832  4       50
siesta:     42.98104   8.23912   6.88708  4       51
siesta:     44.37030  10.48117   8.91010  4       52
siesta:     45.73581  13.04606   5.13790  4       53
siesta:     44.17941  10.93775   3.10435  4       54
siesta:     47.16628   7.48120   4.43681  4       55
siesta:     49.58465  12.32314   2.38329  4       56
siesta:     48.57068   9.61835   0.67208  4       57
siesta:     51.24253   9.44107   2.64613  4       58
siesta:     49.73072  11.67206   7.50273  4       59
siesta:     51.02579   8.63882   6.93394  4       60
siesta:     48.25773   8.92432   8.75464  4       61
siesta:     42.91253  15.24170   7.47113  4       62
siesta:     41.31374  12.11488  25.31967  1       63
siesta:     43.12066  11.74818  23.13157  1       64
siesta:     41.64468  11.80963  20.61728  1       65
siesta:     40.59571  14.56476  20.51495  1       66
siesta:     38.47806  14.91695  22.49777  1       67
siesta:     38.96871  13.50593  24.97604  1       68
siesta:     36.94398  13.36239  26.74983  1       69
siesta:     37.29253  11.72431  28.77961  1       70
siesta:     39.72841  10.63530  29.04234  1       71
siesta:     41.84868  10.77636  27.53345  1       72
siesta:     39.94947   9.21258  31.20021  1       73
siesta:     42.14434   8.16806  32.03954  1       74
siesta:     44.28586   8.16557  30.47306  1       75
siesta:     44.02818   9.51731  28.21491  3       76
siesta:     35.21655  11.26665  30.59615  1       77
siesta:     35.63168   9.70197  32.79052  1       78
siesta:     38.00022   8.79424  32.92000  1       79
siesta:     34.72544  14.57736  26.55132  3       80
siesta:     32.87800  14.20083  28.35859  1       81
siesta:     32.96787  12.55365  30.49119  1       82
siesta:     31.14441  12.31216  32.65548  1       83
siesta:     31.97521  11.10916  34.96865  1       84
siesta:     34.21351   9.77134  35.04159  1       85
siesta:     35.53582   9.10383  37.32624  1       86
siesta:     37.82214   7.76819  37.38060  1       87
siesta:     39.06614   7.82078  35.08861  1       88
siesta:     28.71059  13.33309  32.82881  1       89
siesta:     27.30048  13.45549  35.00121  3       90
siesta:     28.34265  12.61027  37.18800  1       91
siesta:     30.71002  11.51805  37.27637  1       92
siesta:     31.95025  10.84329  39.77719  1       93
siesta:     34.83164  10.65714  39.64470  1       94
siesta:     39.64697   9.61871  20.47530  1       95
siesta:     40.79574   6.93917  20.67312  1       96
siesta:     38.84024   4.79225  20.69366  1       97
siesta:     37.01043   4.95076  22.90936  1       98
siesta:     39.85906  15.58496  17.89105  1       99
siesta:     42.06978  15.68813  16.03358  1      100
siesta:     46.82856   6.95283  30.99360  1      101
siesta:     46.85146   4.35735  32.36297  1      102
siesta:     49.49972   3.30385  32.67163  1      103
siesta:     45.75240   4.36088  35.00316  1      104
siesta:     36.27386  13.28076  39.76306  1      105
siesta:     35.77710  15.40891  37.81980  1      106
siesta:     36.72670  14.94393  35.18193  1      107
siesta:     26.64962  12.74837  39.47996  1      108
siesta:     26.88825  15.22981  40.96761  1      109
siesta:     25.14811  15.31477  43.31712  1      110
siesta:     25.80039  13.19865  45.18356  1      111
siesta:     25.17844  17.90693  44.68236  1      112
siesta:     27.71977  18.62006  45.87749  1      113
siesta:     27.63794  21.14978  47.24307  1      114
siesta:     41.53432   7.44716  34.47162  3      115
siesta:     27.29056  14.28004  30.55927  1      116
siesta:     44.11415   9.94219  23.28685  4      117
siesta:     44.58112  13.21590  23.18388  4      118
siesta:     42.99903  11.51469  19.08316  4      119
siesta:     42.14202  15.82051  21.11898  4      120
siesta:     36.68774  14.23897  21.69892  4      121
siesta:     38.25126  16.93713  22.90774  4      122
siesta:     31.28828  15.44807  28.04466  4      123
siesta:     38.79271   7.25815  39.11024  4      124
siesta:     31.49495  12.23214  41.24208  4      125
siesta:     31.18467   9.01707  40.39448  4      126
siesta:     35.45855   9.61995  41.34434  4      127
siesta:     38.55181   9.76078  18.72518  4      128
siesta:     38.27235   9.80804  22.00381  4      129
siesta:     41.91225   6.74704  22.40567  4      130
siesta:     42.09231   6.63838  19.08697  4      131
siesta:     39.84565   2.97958  20.81018  4      132
siesta:     37.78340   4.76947  18.91437  4      133
siesta:     38.02988   5.02817  24.70841  4      134
siesta:     35.76518   3.29933  22.94631  4      135
siesta:     35.80688   6.62383  22.76697  4      136
siesta:     39.17289  17.53326  18.11396  4      137
siesta:     38.30615  14.49323  17.07414  4      138
siesta:     43.53670  16.99465  16.69166  4      139
siesta:     41.42378  16.36134  14.18623  4      140
siesta:     42.93853  13.83761  15.74565  4      141
siesta:     48.01439   8.33051  31.98767  4      142
siesta:     47.73197   6.65460  29.14208  4      143
siesta:     45.72250   3.03609  31.23299  4      144
siesta:     50.68526   4.61584  33.74677  4      145
siesta:     50.36219   2.91642  30.84375  4      146
siesta:     49.41044   1.52515  33.73535  4      147
siesta:     46.21270   6.11920  36.01195  4      148
siesta:     46.25493   2.78261  36.22978  4      149
siesta:     43.75376   3.99440  34.72856  4      150
siesta:     38.31979  12.92278  39.79341  4      151
siesta:     35.83091  14.12459  41.60798  4      152
siesta:     36.72361  17.13968  38.42207  4      153
siesta:     33.74830  15.81320  37.75024  4      154
siesta:     38.53674  13.96366  35.03875  4      155
siesta:     36.58304  16.51724  33.85770  4      156
siesta:     35.32274  13.76996  34.41472  4      157
siesta:     27.04055  11.10865  40.68456  4      158
siesta:     24.70397  12.49836  38.82230  4      159
siesta:     26.43914  16.81462  39.70901  4      160
siesta:     28.85429  15.50037  41.55729  4      161
siesta:     23.19887  15.00730  42.66960  4      162
siesta:     27.83488  13.14040  45.55891  4      163
siesta:     25.23824  11.35102  44.44734  4      164
siesta:     24.81704  13.46265  46.98441  4      165
siesta:     23.74286  17.86077  46.18299  4      166
siesta:     24.57906  19.38876  43.36259  4      167
siesta:     29.19733  18.68696  44.43248  4      168
siesta:     28.27179  17.19041  47.26751  4      169
siesta:     27.20700  22.70572  45.95110  4      170
siesta:     29.47860  21.52919  48.11144  4      171
siesta:     26.22190  21.13128  48.75055  4      172
siesta:     42.71368   6.95938  35.86628  4      173
siesta:     25.26175  14.20866  30.91097  4      174
siesta:     27.65546  13.06718  28.92170  4      175
siesta:     27.81019  16.23599  30.14335  4      176
siesta:     54.88499  45.58491   9.27247  1      177
siesta:     53.46365  47.15728   7.28270  1      178
siesta:     55.37114  48.80660   5.85991  1      179
siesta:     51.99716  45.40415   5.47439  1      180
siesta:     50.08435  43.71956   6.57118  3      181
siesta:     47.86953  44.09245   7.81245  1      182
siesta:     46.43035  42.26227   7.97673  2      183
siesta:     47.07132  46.71707   8.79096  1      184
siesta:     45.86842  46.51375  11.46154  1      185
siesta:     47.79989  45.50985  13.37815  1      186
siesta:     44.83957  49.04895  12.43390  1      187
siesta:     45.26022  47.66786   6.93349  3      188
siesta:     45.74787  48.94585   4.74330  1      189
siesta:     44.10258  48.98567   3.10642  2      190
siesta:     48.37488  50.15437   4.30836  1      191
siesta:     48.04985  52.81533   3.10470  1      192
siesta:     46.62947  54.61698   4.87202  1      193
siesta:     50.59060  54.01724   2.39411  1      194
siesta:     49.67340  48.47560   2.53728  3      195
siesta:     51.07410  46.36253   2.87861  1      196
siesta:     51.46977  45.06301   0.97541  2      197
siesta:     55.91271  46.81195  10.58489  4      198
siesta:     56.26489  44.32023   8.38494  4      199
siesta:     53.58262  44.42906  10.38914  4      200
siesta:     52.22385  48.43258   8.31265  4      201
siesta:     56.66977  47.65846   4.73023  4      202
siesta:     56.49836  49.93085   7.18345  4      203
siesta:     54.41435  50.13093   4.59554  4      204
siesta:     53.45784  44.03462   4.88982  4      205
siesta:     50.14605  41.92794   5.88208  4      206
siesta:     48.66807  47.98212   8.90724  4      207
siesta:     44.27730  45.18389  11.40686  4      208
siesta:     49.37996  46.82695  13.61279  4      209
siesta:     48.56820  43.68164  12.79506  4      210
siesta:     46.91525  45.24048  15.23046  4      211
siesta:     46.25250  50.55554  12.29856  4      212
siesta:     44.27978  48.89573  14.42442  4      213
siesta:     43.16092  49.63567  11.37744  4      214
siesta:     43.58769  46.72756   6.83326  4      215
siesta:     49.45301  50.32157   6.04554  4      216
siesta:     46.94239  52.64666   1.35653  4      217
siesta:     47.67750  54.92266   6.62962  4      218
siesta:     44.75425  53.89217   5.35391  4      219
siesta:     46.35694  56.45757   3.96268  4      220
siesta:     51.84929  54.14130   4.03132  4      221
siesta:     50.31203  55.93581   1.66405  4      222
siesta:     51.55067  52.93629   0.91474  4      223
siesta:     49.01338  48.54121   0.73477  4      224

siesta: System type = molecule  

initatomlists: Number of atoms, orbitals, and projectors:    224  1952  2744

coxmol: Writing XMOL coordinates into file siesta.xyz                                                          

siesta: ******************** Simulation parameters ****************************
siesta:
siesta: The following are some of the parameters of the simulation.
siesta: A complete list of the parameters used, including default values,
siesta: can be found in file out.fdf
siesta:
redata: Spin configuration                          = collinear
redata: Number of spin components                   = 2
redata: Time-Reversal Symmetry                      = T
redata: Spin spiral                                 = F
redata: Long output                                 =   T
redata: Number of Atomic Species                    =        4
redata: Charge density info will appear in .RHO file
redata: Write Mulliken Pop.                         = Atomic and Orbital charges
redata: Matel table size (NRTAB)                    =     1024
redata: Mesh Cutoff                                 =   100.0000 Ry
redata: Net charge of the system                    =     0.0000 |e|
redata: Min. number of SCF Iter                     =        0
redata: Max. number of SCF Iter                     =      100
redata: SCF convergence failure will abort job
redata: SCF mix quantity                            = Hamiltonian
redata: Mix DM or H after convergence               =   F
redata: Recompute H after scf cycle                 =   F
redata: Mix DM in first SCF step                    =   T
redata: Write Pulay info on disk                    =   F
redata: New DM Occupancy tolerance                  = 0.000000000001
redata: No kicks to SCF
redata: DM Mixing Weight for Kicks                  =     0.5000
redata: Require Harris convergence for SCF          =   F
redata: Harris energy tolerance for SCF             =     0.000100 eV
redata: Require DM convergence for SCF              =   T
redata: DM tolerance for SCF                        =     0.001000
redata: Require EDM convergence for SCF             =   F
redata: EDM tolerance for SCF                       =     0.001000 eV
redata: Require H convergence for SCF               =   T
redata: Hamiltonian tolerance for SCF               =     0.001000 eV
redata: Require (free) Energy convergence for SCF   =   F
redata: (free) Energy tolerance for SCF             =     0.000100 eV
redata: Antiferro initial spin density              =   F
redata: Using Saved Data (generic)                  =   F
redata: Use continuation files for DM               =   F
redata: Neglect nonoverlap interactions             =   F
redata: Method of Calculation                       = Diagonalization
redata: Electronic Temperature                      =   299.9869 K
redata: Fix the spin of the system                  =   F
redata: Max. number of TDED Iter                    =        1
redata: Number of TDED substeps                     =        3
redata: Dynamics option                             = Nose thermostat MD run
redata: Initial MD time step                        =        1
redata:   Final MD time step                        =       10
redata: Length of MD time step                      =     1.0000 fs
redata: Initial Temperature of MD run               =   300.0000 K
redata: Perform a MD quench                         =   F
redata: Nose mass                                   =  1360.5800 eV/fs**2
redata: Target Temperature                          =   300.0000 Kelvin
mix.SCF: Pulay mixing                            = Pulay
mix.SCF:    Variant                              = stable
mix.SCF:    History steps                        = 3
mix.SCF:    Linear mixing weight                 =     0.250000
mix.SCF:    Mixing weight                        =     0.250000
mix.SCF:    SVD condition                        = 0.1000E-07
mix.SCF: Spin-component mixing                   all
redata: ***********************************************************************

%block SCF.Mixers
  Pulay
%endblock SCF.Mixers

%block SCF.Mixer.Pulay
  # Mixing method
  method pulay
  variant stable

  # Mixing options
  weight 0.2500
  weight.linear 0.2500
  history 3
%endblock SCF.Mixer.Pulay

Size of DM history Fstack: 1
Total number of electrons:   552.000000
Total ionic charge:   552.000000
 Kpoints in:            1 . Kpoints trimmed:            1

siesta: k-point coordinates (Bohr**-1) and weights:
siesta:          1  0.000000E+00  0.000000E+00  0.000000E+00   0.100000E+01

siesta: k-grid: Number of k-points =         1
siesta: k-points from Monkhorst-Pack grid
siesta: k-cutoff (effective) =    12.856 Ang
siesta: k-point supercell and displacements
siesta: k-grid:    1   0   0      0.000
siesta: k-grid:    0   1   0      0.000
siesta: k-grid:    0   0   1      0.000
 Kpoints in:            1 . Kpoints trimmed:            1

siesta: PDOS k-point coordinates (Bohr**-1) and weights:
siesta:          1  0.000000E+00  0.000000E+00  0.000000E+00   0.100000E+01

siesta: PDOS k-grid: Number of k-points =         1
siesta: PDOS k-points from Monkhorst-Pack grid
siesta: PDOS k-cutoff (effective) =     0.000 Ang
siesta: PDOS k-point supercell and displacements
siesta: k-grid:    1   0   0      0.000
siesta: k-grid:    0   1   0      0.000
siesta: k-grid:    0   0   1      0.000

diag: Algorithm                                     = D&C
diag: Used triangular part                          = Lower
diag: Absolute tolerance                            =  0.100E-15
diag: Orthogonalization factor                      =  0.100E-05
diag: Memory factor                                 =  1.0000
Using LatticeConstant from fdf file for BandLinesScale:    1.889727 Bohr
Beware any cell changes by the end of the run
Using LatticeConstant from fdf file for BandLinesScale:    1.889727 Bohr
Beware any cell changes by the end of the run


ts: **************************************************************
ts: Save H and S matrices                           =    F
ts: Save DM and EDM matrices                        =    F
ts: Only save the overlap matrix S                  =    F
ts: **************************************************************

************************ Begin: TS CHECKS AND WARNINGS ************************
************************ End: TS CHECKS AND WARNINGS **************************


                     ====================================
                        Begin MD step =      1
                     ====================================

outcoor: Atomic coordinates (Ang):                          
   24.18294400   11.24632000    5.01259900   1       1  C
   22.89821800   10.43514200    5.14682400   1       2  C
   21.95499600   10.63120700    3.94718300   1       3  C
   20.62882400    9.85877900    3.97216100   1       4  C
   19.41925600   10.58104100    3.95622200   1       5  C
   19.48903800   11.95164000    4.02259900   2       6  O
   18.15249800    9.94816300    3.86671800   1       7  C
   16.93394200   10.66189300    3.82503000   1       8  C
   15.71743900    9.98335500    3.75836100   1       9  C
   15.71104000    8.59275200    3.69962300   1      10  C
   16.88012300    7.84853000    3.70557500   1      11  C
   16.80483300    6.51655500    3.63030300   3      12  N
   17.94271600    5.77435700    3.66397100   1      13  C
   17.72681300    4.27457200    3.60584800   1      14  C
   17.64997000    3.65289100    2.18970400   1      15  C
   18.92186400    3.85527400    1.36304900   1      16  C
   17.35937600    2.14921600    2.29467600   1      17  C
   19.23282500    6.35680000    3.77039400   1      18  C
   20.43562100    5.61089200    3.80563800   1      19  C
   21.68995100    6.22814800    3.80948600   1      20  C
   22.97754100    5.42659200    3.74782200   1      21  C
   23.92524000    5.84965000    2.59297000   1      22  C
   25.22684800    5.01282100    2.49423700   1      23  C
   26.11335200    5.43427800    1.30974800   1      24  C
   26.06438500    5.13007700    3.76765800   1      25  C
   21.72006500    7.61670300    3.90421300   1      26  C
   20.57205900    8.43305500    3.91226600   1      27  C
   19.30550100    7.77078200    3.83044100   1      28  C
   18.11787300    8.53850200    3.80280700   1      29  C
   24.91954000   10.89647400    5.74470800   4      30  H
   24.00031200   12.30797800    5.20096700   4      31  H
   24.63009000   11.13963300    4.01824600   4      32  H
   22.39262500   10.69845500    6.08146700   4      33  H
   23.20371900    9.39526700    5.25916900   4      34  H
   22.46688800   10.36673300    3.01277400   4      35  H
   21.76736800   11.70832300    3.86126600   4      36  H
   18.83635400   12.24141500    4.68207900   4      37  H
   16.91290200   11.74552600    3.83437300   4      38  H
   14.78135500   10.53766800    3.74749400   4      39  H
   14.75627400    8.06830900    3.64659300   4      40  H
   16.76661400    4.07364400    4.10973100   4      41  H
   18.46390500    3.75114800    4.21718600   4      42  H
   16.81664400    4.11287200    1.64340000   4      43  H
   19.82169500    3.65146500    1.94758200   4      44  H
   18.97657300    4.87926900    0.98052100   4      45  H
   18.95275900    3.17941800    0.50176200   4      46  H
   18.20346100    1.60865300    2.73768400   4      47  H
   17.17465300    1.72278500    1.30194600   4      48  H
   16.47204300    1.95664300    2.90616200   4      49  H
   20.41178100    4.52898500    3.80389600   4      50  H
   22.74458000    4.35995200    3.64448300   4      51  H
   23.47974300    5.54639300    4.71502200   4      52  H
   24.20233800    6.90367600    2.71885700   4      53  H
   23.37872700    5.78800800    1.64274900   4      54  H
   24.95931100    3.95887900    2.34785800   4      55  H
   26.23905400    6.52112400    1.26118400   4      56  H
   25.70248500    5.08981000    0.35564800   4      57  H
   27.11636700    4.99599800    1.40027300   4      58  H
   26.31635300    6.17658800    3.97027200   4      59  H
   27.00167200    4.57146700    3.66927900   4      60  H
   25.53688200    4.72254700    4.63275400   4      61  H
   22.70832400    8.06555800    3.95355200   4      62  H
   21.86228100    6.41091500   13.39858600   1      63  C
   22.81846400    6.21686800   12.24069700   1      64  C
   22.03740500    6.24938500   10.91019200   1      65  C
   21.48231500    7.70733600   10.85603900   1      66  C
   20.36170400    7.89370500   11.90530300   1      67  C
   20.62134600    7.14702500   13.21674800   1      68  C
   19.54990600    7.07106700   14.15539400   1      69  C
   19.73434800    6.20423500   15.22950900   1      70  C
   21.02336300    5.62795600   15.36853700   1      71  C
   22.14535700    5.70260000   14.57006700   1      72  C
   21.14034100    4.87508300   16.51043600   1      73  C
   22.30181500    4.32234700   16.95458900   1      74  C
   23.43506000    4.32103200   16.12564100   1      75  C
   23.29870200    5.03633900   14.93068000   3      76  N
   18.63579000    5.96205000   16.19078000   1      77  C
   18.85546600    5.13406100   17.35199100   1      78  C
   20.10884000    4.65370800   17.42050800   1      79  C
   18.37590400    7.71400600   14.05034900   3      80  N
   17.39828200    7.51475100   15.00671200   1      81  C
   17.44583600    6.64310100   16.13523600   1      82  C
   16.48090800    6.51531200   17.28052900   1      83  C
   16.92054600    5.87871300   18.50460600   1      84  C
   18.10500400    5.17076900   18.54320600   1      85  C
   18.80474000    4.81753500   19.75218600   1      86  C
   20.01460500    4.11074800   19.78095500   1      87  C
   20.67290400    4.13857600   18.56808400   1      88  C
   15.19298200    7.05556400   17.37225300   1      89  C
   14.44678800    7.12033500   18.52183300   3      90  N
   14.99828100    6.67306300   19.67903600   1      91  C
   16.25103500    6.09508500   19.72579800   1      92  C
   16.90733700    5.73801900   21.04917200   1      93  C
   18.43210200    5.63951300   20.97906200   1      94  C
   20.98026500    5.09000200   10.83505900   1      95  C
   21.58816500    3.67205100   10.93974200   1      96  C
   20.55336300    2.53594900   10.95061100   1      97  C
   19.58506600    2.61982700   12.12310800   1      98  C
   21.09249600    8.24720500    9.46753400   1      99  C
   22.26235800    8.30179700    8.48460100   1     100  C
   24.78059900    3.67927900   16.40109900   1     101  C
   24.79271700    2.30580900   17.12573900   1     102  C
   26.19411500    1.74831900   17.28907600   1     103  C
   24.21111700    2.30767800   18.52286600   1     104  C
   19.19529000    7.02787100   21.04169700   1     105  C
   18.93242100    8.15404100   20.01336900   1     106  C
   19.43492700    7.90798600   18.61746600   1     107  C
   14.10236400    6.74614500   20.89188500   1     108  C
   14.22864400    8.05926400   21.67911800   1     109  C
   13.30780200    8.10422300   22.92242500   1     110  C
   13.65297500    6.98442300   23.91010000   1     111  C
   13.32385000    9.47593600   23.64487800   1     112  C
   14.66866400    9.85330600   24.27731300   1     113  C
   14.62536300   11.19197800   24.99994600   1     114  C
   21.97900800    3.94086500   18.24158800   3     115  N
   14.44153700    7.55667000   16.17126200   1     116  C
   23.34419300    5.26117900   12.32286800   4     117  H
   23.59130400    6.99355200   12.26837700   4     118  H
   22.75409600    6.09331000   10.09836900   4     119  H
   22.30058700    8.37184900   11.17567800   4     120  H
   19.41430700    7.53493500   11.48257000   4     121  H
   20.24168600    8.96273700   12.12224800   4     122  H
   16.55703700    8.17476100   14.84058800   4     123  H
   20.52821200    3.84084800   20.69624100   4     124  H
   16.66640300    6.47296800   21.82435900   4     125  H
   16.50220900    4.77162600   21.37582900   4     126  H
   18.76385100    5.09065600   21.87847200   4     127  H
   20.40072900    5.16517800    9.90893400   4     128  H
   20.25284500    5.19018700   11.64390800   4     129  H
   22.17899900    3.57037600   11.85656600   4     130  H
   22.27428000    3.51287800   10.10038400   4     131  H
   21.08540400    1.57672500   11.01227100   4     132  H
   19.99410800    2.52389600   10.00904700   4     133  H
   20.12453600    2.66079100   13.07512300   4     134  H
   18.92611200    1.74593100   12.14266000   4     135  H
   18.94817600    3.50517900   12.04775500   4     136  H
   20.72939200    9.27819900    9.58548900   4     137  H
   20.27073600    7.66948300    9.03524400   4     138  H
   23.03862200    8.99317800    8.83284500   4     139  H
   21.92050900    8.65804600    7.50702500   4     140  H
   22.72208200    7.32254400    8.33223500   4     141  H
   25.40811000    4.40831300   16.92713800   4     142  H
   25.25866100    3.52146000   15.42131800   4     143  H
   24.19529600    1.60662700   16.52778000   4     144  H
   26.82147400    2.44259500   17.85801200   4     145  H
   26.65051000    1.54330200   16.32180300   4     146  H
   26.14686600    0.80707500   17.85196900   4     147  H
   24.45469900    3.23814100   19.05669600   4     148  H
   24.47704600    1.47249100   19.17196800   4     149  H
   23.15348600    2.11374600   18.37755400   4     150  H
   20.27795200    6.83843900   21.05775900   4     151  H
   18.96089300    7.47441000   22.01798400   4     152  H
   19.43329000    9.06992200   20.33207400   4     153  H
   17.85882400    8.36798200   19.97655700   4     154  H
   20.39275400    7.38924700   18.54170200   4     155  H
   19.35890300    8.74054500   17.91671400   4     156  H
   18.69198200    7.28674400   18.21147600   4     157  H
   14.30923600    5.87844200   21.52933600   4     158  H
   13.07277200    6.61384400   20.54386700   4     159  H
   13.99098400    8.89791100   21.01309700   4     160  H
   15.26902400    8.20243900   21.99116000   4     161  H
   12.27631000    7.94151700   22.57977300   4     162  H
   14.72957800    6.95359700   24.10872800   4     163  H
   13.35549600    6.00670000   23.52051100   4     164  H
   13.13260700    7.12412300   24.86307000   4     165  H
   12.56417300    9.45150800   24.43897400   4     166  H
   13.00667500   10.26008600   22.94648700   4     167  H
   15.45055300    9.88871200   23.51264400   4     168  H
   14.96078100    9.09677200   25.01287900   4     169  H
   14.39732100   12.01534400   24.31626700   4     170  H
   15.59939700   11.39275100   25.45946700   4     171  H
   13.87602700   11.18218600   25.79766900   4     172  H
   22.60309600    3.68274300   18.97961200   4     173  H
   13.36793600    7.51889500   16.35737600   4     174  H
   14.63463600    6.91484900   15.30469600   4     175  H
   14.71651300    8.59171500   15.95116900   4     176  H
   29.04387200   24.12248700    4.90677700   1     177  C
   28.29173300   24.95454900    3.85383600   1     178  C
   29.30113400   25.82733200    3.10093200   1     179  C
   27.51570100   24.02683200    2.89692100   1     180  C
   26.50348700   23.13538400    3.47731800   3     181  N
   25.33145300   23.33271000    4.13417000   1     182  C
   24.56987400   22.36422300    4.22110100   2     183  O
   24.90905900   24.72159800    4.65197600   1     184  C
   24.27251300   24.61400900    6.06518200   1     185  C
   25.29460200   24.08276400    7.07940700   1     186  C
   23.72806800   25.95557400    6.57973200   1     187  C
   23.95066900   25.22473300    3.66904100   3     188  N
   24.20872000   25.90101700    2.51004400   1     189  C
   23.33806900   25.92209100    1.64384800   2     190  O
   25.59887400   26.54053900    2.27988400   1     191  C
   25.42687500   27.94865900    1.64293800   1     192  C
   24.67524500   28.90204700    2.57816200   1     193  C
   26.77138100   28.58468000    1.26690600   1     194  C
   26.28602300   25.65217400    1.34267000   3     195  N
   27.02723800   24.53398200    1.52329400   1     196  C
   27.23661800   23.84630700    0.51616500   2     197  O
   29.58772100   24.77180500    5.60127900   4     198  H
   29.77408400   23.45324400    4.43711500   4     199  H
   28.35468900   23.51083900    5.49769600   4     200  H
   27.63566000   25.62940600    4.39886500   4     201  H
   29.98833800   25.21975900    2.50312700   4     202  H
   29.89763500   26.42225700    3.80131700   4     203  H
   28.79482100   26.52813500    2.43185400   4     204  H
   28.28866000   23.30211000    2.58757900   4     205  H
   26.53613800   22.18730300    3.11266300   4     206  H
   25.75402200   25.39103600    4.71350700   4     207  H
   23.43053000   23.91027300    6.03624600   4     208  H
   26.13073900   24.77974500    7.20357800   4     209  H
   25.70117600   23.11532100    6.77084900   4     210  H
   24.82647100   23.94022100    8.05960800   4     211  H
   24.47576000   26.75282700    6.50811600   4     212  H
   23.43184000   25.87449600    7.63307300   4     213  H
   22.83976800   26.26605700    6.02068100   4     214  H
   23.06560200   24.72715100    3.61600400   4     215  H
   26.16939300   26.62901700    3.19916000   4     216  H
   24.84083400   27.85940300    0.71784400   4     217  H
   25.22983500   29.06380800    3.50824300   4     218  H
   23.68291900   28.51849700    2.83316700   4     219  H
   24.53102600   29.87604500    2.09695800   4     220  H
   27.43745400   28.65033300    2.13328000   4     221  H
   26.62396900   29.59994600    0.88057800   4     222  H
   27.27943000   28.01266900    0.48405700   4     223  H
   25.93675200   25.68689400    0.38882300   4     224  H

outcell: Unit cell vectors (Ang):
       25.712028    0.000000    0.000000
        0.000000   37.068970    0.000000
        0.000000    0.000000   33.442021

outcell: Cell vector modules (Ang)   :   25.712028   37.068970   33.442021
outcell: Cell angles (23,13,12) (deg):     90.0000     90.0000     90.0000
outcell: Cell volume (Ang**3)        :  31874.2054
<dSpData1D:S at geom step 1
  <sparsity:sparsity for geom step 1
    nrows_g=1952 nrows=1952 sparsity=.1593 nnzs=606892, refcount: 7>
  <dData1D:(new from dSpData1D) n=606892, refcount: 1>
refcount: 1>
new_DM -- step:     1
Initializing Density Matrix...
DM filled with atomic data:
<dSpData2D:DM initialized from atoms
  <sparsity:sparsity for geom step 1
    nrows_g=1952 nrows=1952 sparsity=.1593 nnzs=606892, refcount: 8>
  <dData2D:DM n=606892 m=2, refcount: 1>
refcount: 1>
     spin moment: S , {S} =  336.00000       0.0       0.0 336.00000
No. of atoms with KB's overlaping orbs in proc 0. Max # of overlaps:     224     214

InitMesh: MESH = 160 x 240 x 216 = 8294400
InitMesh: Mesh cutoff (required, used) =   100.000   107.021 Ry
New grid distribution [1]: sub = 2

stepf: Fermi-Dirac step function

siesta: Program's energy decomposition (eV):
siesta: Ebs     =     -5379.446858
siesta: Eions   =     31513.654961
siesta: Ena     =      6332.117719
siesta: Ekin    =     15244.384030
siesta: Enl     =     -2515.815896
siesta: Eso     =         0.000000
siesta: Edftu   =         0.000000
siesta: DEna    =      -943.954658
siesta: DUscf   =       145.261240
siesta: DUext   =         0.000000
siesta: Exc     =     -7446.457518
siesta: eta*DQ  =         0.000000
siesta: Emadel  =         0.000000
siesta: Emeta   =         0.000000
siesta: Emolmec =         0.000000
siesta: Ekinion =         0.000000
siesta: Eharris =    -20692.082597
siesta: Etot    =    -20698.120045
siesta: FreeEng =    -20698.147964

        iscf     Eharris(eV)        E_KS(eV)     FreeEng(eV)     dDmax    Ef(eV) dHmax(eV)
   scf:    1   -20692.082597   -20698.120045   -20698.147964  0.987050 -4.957422 12.452334
     spin moment: S , {S} =    6.33007       0.0       0.0   6.33007
timer: Routine,Calls,Time,% = IterSCF        1      55.533  43.28
   scf:    2   -20764.649309   -20740.004314   -20740.034782  0.082459 -4.296918  9.075114
     spin moment: S , {S} =    3.99671       0.0       0.0   3.99671
   scf:    3   -20690.219974   -20732.665780   -20732.672065  0.473514 -4.026279 18.392789
     spin moment: S , {S} =    3.94759       0.0       0.0   3.94759
   scf:    4   -20762.365225   -20757.764575   -20757.764871  0.458854 -3.604609  5.720434
     spin moment: S , {S} =    0.00138       0.0       0.0   0.00138
   scf:    5   -20760.175587   -20759.282588   -20759.282588  0.036014 -3.561228  1.386771
     spin moment: S , {S} =    0.00000       0.0       0.0   0.00000
   scf:    6   -20760.309855   -20759.811472   -20759.811472  0.016161 -3.516376  0.896238
     spin moment: S , {S} =    0.00000       0.0       0.0   0.00000
   scf:    7   -20760.579252   -20760.197103   -20760.197103  0.020802 -3.536785  0.511358
     spin moment: S , {S} =   -0.00000       0.0       0.0  -0.00000
   scf:    8   -20760.282212   -20760.239476   -20760.239476  0.006140 -3.511854  0.197633
     spin moment: S , {S} =   -0.00000       0.0       0.0  -0.00000
   scf:    9   -20760.265596   -20760.252672   -20760.252672  0.003476 -3.510829  0.103127
     spin moment: S , {S} =    0.00000       0.0       0.0   0.00000
   scf:   10   -20760.262025   -20760.257343   -20760.257343  0.002084 -3.519742  0.035236
     spin moment: S , {S} =   -0.00000       0.0       0.0  -0.00000
   scf:   11   -20760.259721   -20760.258512   -20760.258512  0.000804 -3.525256  0.020863
     spin moment: S , {S} =   -0.00000       0.0       0.0  -0.00000
   scf:   12   -20760.259603   -20760.259044   -20760.259044  0.000475 -3.527912  0.013139
     spin moment: S , {S} =   -0.00000       0.0       0.0  -0.00000
   scf:   13   -20760.259821   -20760.259400   -20760.259400  0.000598 -3.529795  0.007661
     spin moment: S , {S} =   -0.00000       0.0       0.0  -0.00000
   scf:   14   -20760.259461   -20760.259430   -20760.259430  0.000151 -3.529711  0.004713
     spin moment: S , {S} =    0.00000       0.0       0.0   0.00000
   scf:   15   -20760.259472   -20760.259452   -20760.259452  0.000141 -3.528996  0.003263
     spin moment: S , {S} =    0.00000       0.0       0.0   0.00000
   scf:   16   -20760.259459   -20760.259455   -20760.259455  0.000087 -3.528605  0.001540
     spin moment: S , {S} =    0.00000       0.0       0.0   0.00000
   scf:   17   -20760.259458   -20760.259456   -20760.259456  0.000027 -3.528333  0.001009
     spin moment: S , {S} =    0.00000       0.0       0.0   0.00000
   scf:   18   -20760.259459   -20760.259458   -20760.259458  0.000035 -3.528068  0.000314
     spin moment: S , {S} =   -0.00000       0.0       0.0  -0.00000

SCF Convergence by DM+H criterion
max |DM_out - DM_in|         :     0.0000354881
max |H_out - H_in|      (eV) :     0.0003136466
SCF cycle converged after 18 iterations

Using DM_out to compute the final energy and forces
No. of atoms with KB's overlaping orbs in proc 0. Max # of overlaps:     224     214

siesta: E_KS(eV) =           -20760.2595

siesta: E_KS - E_eggbox =    -20760.2595
     spin moment: S , {S} =   -0.00000       0.0       0.0  -0.00000

siesta: Atomic forces (eV/Ang):
     1   -0.733011   -0.362561    0.216251
     2    0.250731    0.490373   -0.936251
     3   -0.550971   -0.847487    0.897451
     4   -0.164380    1.480011   -0.046026
     5    1.629323    0.163914    0.235113
     6   -3.364050   -2.435615    0.222222
     7   -0.574564    0.362644   -0.010928
     8    0.114947   -0.509368    0.089880
     9    0.713607   -0.355774    0.005831
    10   -1.044773    0.665657    0.003313
    11    0.739933    0.491164    0.033420
    12    1.535016   -2.984072   -0.166720
    13   -2.388365    0.225012   -0.084308
    14   -0.415549    0.635651   -0.819581
    15    0.856147   -0.726626    0.366796
    16   -0.808418    0.128660    0.414531
    17    0.033293    1.000545    0.009052
    18    0.888533   -0.127481    0.073383
    19   -0.065716    0.470925   -0.238811
    20   -0.104758   -0.462549    0.005950
    21   -0.090710    0.854775   -0.864938
    22    0.276558   -1.016394    0.730424
    23    0.354598    1.083178    0.169881
    24   -0.740930   -0.369786    0.596206
    25   -0.656678   -0.224768   -0.663800
    26    0.019937    0.272244   -0.186252
    27    0.141256   -0.440615   -0.056121
    28    0.099291    0.655920    0.024587
    29    0.351330   -0.480932    0.005137
    30    0.444635   -0.080861    0.417138
    31   -0.051856    0.715524    0.008964
    32    0.231286   -0.068313   -0.617700
    33   -0.459372    0.188382    0.608101
    34    0.004835   -1.001282    0.059122
    35    0.500056   -0.321752   -0.558826
    36   -0.476342    0.650344   -0.026524
    37   -0.343514    0.299571    0.073734
    38    0.230223    0.890396   -0.002884
    39   -0.548562    0.320221   -0.030194
    40   -0.409958   -0.487832   -0.052678
    41   -0.515245    0.092814    0.134002
    42    0.841350   -0.428849    0.307661
    43   -0.588471    0.467141   -0.186105
    44    0.659301   -0.100926    0.458765
    45    0.230331    0.676919   -0.119002
    46   -0.117901   -0.384471   -0.560201
    47    0.533824   -0.298857    0.307174
    48   -0.069531   -0.241724   -0.556964
    49   -0.537610   -0.153932    0.411926
    50   -0.177659   -0.957698   -0.035230
    51   -0.218091   -0.684076   -0.046735
    52    0.490714    0.045732    0.620860
    53    0.196111    0.760438    0.081681
    54   -0.383190   -0.034374   -0.549761
    55   -0.248063   -0.735076   -0.042011
    56    0.030689    0.698952    0.010368
    57   -0.317422   -0.075392   -0.624927
    58    0.473732   -0.258792    0.086218
    59    0.150688    0.676837    0.150996
    60    0.552449   -0.307688   -0.058191
    61   -0.350558   -0.191545    0.686324
    62    0.668258    0.560034   -0.044517
    63   -0.694546    1.332688   -2.388490
    64   -1.324940    0.134144   -0.450072
    65   -0.767139    0.340412    0.951744
    66   -0.691419   -0.477384   -0.320767
    67    1.263794   -1.042091    0.197226
    68    1.809105   -0.556148   -1.252214
    69   -0.280580   -0.322555    0.541383
    70   -0.759926   -0.700120    1.152171
    71   -2.011288   -0.696889    1.820646
    72    0.892602   -0.808019    1.136542
    73   -1.374943    0.143460   -1.084315
    74    1.239253   -0.596347    1.424158
    75   -0.266398    1.522875   -2.195546
    76    0.458153   -0.605411    0.345764
    77    2.060487   -1.091286    0.022334
    78   -1.022358    0.770525   -1.084466
    79    0.976564   -0.318048   -0.142542
    80   -2.470274    0.511765    1.236566
    81    1.639359    0.429056   -1.590419
    82   -1.764735    0.891026   -0.144014
    83    1.069091   -0.340090    0.012898
    84   -1.320304    1.626820   -0.042609
    85    2.558541   -1.087324    0.119132
    86   -0.450843    0.758582    0.691276
    87   -0.679816    0.835597   -0.394555
    88    1.275616   -0.804069   -0.489431
    89   -1.965497    0.661075    0.609870
    90    1.344175   -0.637117   -0.537860
    91   -1.253326    0.495927   -0.379675
    92    0.386524    0.134128    0.579422
    93    0.361314    0.078236   -1.029266
    94   -0.315385    0.049443   -0.631428
    95    1.407408    0.064388    0.227191
    96   -1.086117    0.405089   -0.261722
    97    0.180432    0.800082    0.705419
    98    0.483199   -0.069676   -0.749824
    99    0.915304   -0.332436    0.381920
   100   -0.740389    0.020620    0.596616
   101   -0.947029   -0.845443    0.047278
   102    0.718526    0.474406    0.585591
   103   -0.500143    0.204237   -0.513696
   104   -0.415502   -0.044728   -0.512846
   105   -0.805773   -0.221631   -0.873447
   106    0.668883   -0.614529    0.128886
   107   -0.225717    0.219673    0.463125
   108    0.718791    0.778050   -0.169791
   109   -0.968143   -0.739094    0.514110
   110    0.929863    0.306068    0.346567
   111   -0.241821    0.624625   -0.732408
   112    0.966973   -0.844414   -0.184292
   113   -1.051087    0.532007   -0.011986
   114    0.156564   -0.729887   -0.386190
   115    1.086341   -1.017706    1.686685
   116    0.628716   -0.422177    0.407947
   117    0.379071   -0.675799    0.516817
   118    0.557070    0.509992   -0.163655
   119    0.545410   -0.024975   -0.692302
   120    0.686170    0.190468    0.239454
   121   -0.800639   -0.111685   -0.103103
   122   -0.272880    0.635314    0.149527
   123   -0.913950    0.471823   -0.090397
   124    0.237810   -0.062495    0.840121
   125   -0.520037    0.543966    0.471225
   126   -0.217901   -0.667142    0.346743
   127    0.213500   -0.192106    0.397811
   128   -0.329845    0.096037   -0.750799
   129   -0.552916    0.269423    0.738311
   130    0.476151    0.111435    0.705206
   131    0.545500   -0.090183   -0.533554
   132    0.349615   -0.513876   -0.065188
   133   -0.380258    0.002780   -0.671220
   134    0.322717    0.104849    0.641767
   135   -0.404631   -0.503017    0.066445
   136   -0.417397    0.609910    0.046385
   137   -0.401011    0.528063    0.157247
   138   -0.659332   -0.479383   -0.281364
   139    0.480191    0.356280    0.234253
   140   -0.196261    0.201125   -0.692687
   141    0.324573   -0.691599   -0.105727
   142    0.488767    0.441585    0.534749
   143    0.159565    0.172674   -0.550102
   144   -0.313188   -0.424252   -0.502981
   145    0.452863    0.445111    0.293229
   146    0.613191   -0.096681   -0.710875
   147    0.042671   -0.477485    0.202046
   148   -0.081299    0.458620    0.355279
   149    0.863273   -0.651514    0.232269
   150   -1.039002    0.343675    0.330497
   151    0.623364   -0.334450   -0.028612
   152   -0.210039    0.041308    0.702420
   153    0.245092    0.640786    0.903074
   154   -0.809378    0.216738   -0.017276
   155    0.755935   -0.211622   -0.022813
   156    0.428222    1.023071   -0.086233
   157   -1.167441   -1.605174   -1.147549
   158    0.236200   -0.489887    0.578593
   159   -0.719330    0.071470   -0.350334
   160   -0.152720    0.499901   -0.508524
   161    0.845232    0.098831    0.264337
   162   -0.651240   -0.094484   -0.276225
   163    0.707716   -0.021626    0.167614
   164   -0.130521   -0.652130   -0.239221
   165   -0.315386    0.091486    0.602210
   166   -0.481076   -0.008535    0.475558
   167   -0.149359    0.549016   -0.481560
   168    0.572736   -0.075902   -0.565238
   169    0.235618   -0.671129    0.375237
   170   -0.189028    0.528316   -0.405272
   171    0.515899    0.235493    0.290732
   172   -0.497877    0.051101    0.475447
   173    1.018613   -0.302255    0.368535
   174   -0.703706    0.060018    0.425545
   175    0.285412   -0.183395   -0.633516
   176    0.165140    0.694110   -0.331965
   177   -0.702337    0.449446   -0.599580
   178    0.902856   -0.557907   -0.113437
   179   -0.846144   -0.525273    0.279128
   180   -0.044470    0.178664    0.261698
   181    1.197022    1.521135   -0.085166
   182   -0.689951   -0.482656    0.050647
   183    2.108891    3.199515   -2.176052
   184   -1.377977   -0.970713    0.124990
   185    0.805863    0.725378    0.366169
   186   -0.590641    0.147768   -0.857164
   187    0.234762   -0.816338   -0.642750
   188    0.990082    0.026141    1.122806
   189   -0.207304   -0.125598   -0.100170
   190   -3.328339    2.946840    1.525219
   191   -0.936367    0.017793   -1.354792
   192    0.651663    0.402775    0.862847
   193    0.285605   -0.808368   -0.535875
   194   -0.746098   -0.690145    0.112347
   195    0.034656    1.066376    1.505882
   196    0.024901   -0.833229   -0.694963
   197    0.100852   -1.742913   -1.579642
   198    0.299555    0.408011    0.364674
   199    0.423485   -0.396978   -0.350922
   200   -0.499297   -0.469193    0.339661
   201   -0.840089    0.665022    0.493106
   202    0.414636   -0.415098   -0.396161
   203    0.324754    0.272454    0.435798
   204   -0.372409    0.469121   -0.616508
   205    0.394392   -0.237288   -0.475828
   206   -0.122708   -0.571599   -0.179148
   207    1.011594    0.900673    0.019735
   208   -0.391415   -0.715190   -0.390537
   209    0.540228    0.490266    0.068790
   210    0.268912   -0.688146   -0.272062
   211   -0.258011   -0.036867    0.544801
   212    0.496870    0.508531   -0.070156
   213   -0.118827   -0.125088    0.539142
   214   -0.448686    0.299445   -0.470201
   215   -0.570316   -0.438834   -0.077504
   216    0.675490    0.074484    0.940294
   217   -0.600636   -0.484552   -0.468661
   218    0.385658    0.109936    0.608535
   219   -0.647325   -0.339263    0.190871
   220   -0.022941    0.524466   -0.261102
   221    0.466348    0.066868    0.608080
   222   -0.135292    0.555116   -0.175426
   223    0.393118   -0.411902   -0.415787
   224   -0.288852   -0.050121   -0.689794
----------------------------------------
   Tot   -4.131694    1.121853   -1.848908
----------------------------------------
   Max    3.364050
   Res    0.717700    sqrt( Sum f_i^2 / 3N )
----------------------------------------
   Max    3.364050    constrained

Stress tensor Voigt[x,y,z,yz,xz,xy] (kbar):       -2.33       -1.78       -1.40        0.02       -0.45        0.43
(Free)E + p*V (eV/cell)   -20723.6803
Target enthalpy (eV/cell)   -20760.2595

siesta: Stress tensor (static) (eV/Ang**3):
        -0.001274    0.000284   -0.000268
         0.000284   -0.000920    0.000034
        -0.000268    0.000034   -0.000710

siesta: Pressure (static):          1.55100847  kBar

siesta: Stress tensor (total) (eV/Ang**3):
        -0.001457    0.000271   -0.000281
         0.000271   -0.001111    0.000012
        -0.000281    0.000012   -0.000874

siesta: Pressure (total):          1.83869176  kBar

mulliken: Atomic and Orbital Populations:

mulliken: Spin UP 

Species: C                   
Atom  Qatom  Qorb
               2s      2s      2py     2pz     2px     2py     2pz     2px     
               3Pdxy   3Pdyz   3Pdz2   3Pdxz   3Pdx2-y2
   1  1.691  -0.034   0.402   0.099   0.064   0.155   0.326   0.353   0.281
              0.006   0.003   0.007   0.015   0.015
   2  1.785   0.052   0.358   0.115   0.131   0.195   0.317   0.297   0.251
              0.012   0.008   0.015   0.017   0.016
   3  1.794   0.054   0.361   0.092   0.129   0.217   0.338   0.297   0.237
              0.012   0.007   0.015   0.018   0.015
[...]
   67.4165   67.4173   67.6246   67.6536   67.6612   67.7526   67.8053   67.9269   68.0561   68.1582
   68.1785   68.2889   68.3439   68.3864   68.7053   68.7254   68.7739   68.8070   68.8707   68.9079
   68.9589   69.0164   69.1039   69.1252   69.1539   69.2174   69.5556   69.5637   69.7183   69.7294
   69.7502   69.8459   69.9703   70.0382   70.1178   70.1397   70.2509   70.3389   70.5015   70.5412
   70.5687   70.6624   70.7456   70.8477   70.9566   71.0381   71.0686   71.1359   71.2727   71.3942
   71.5055   71.5707   71.5761   71.6490   71.7677   71.8846   71.9273   72.0018   72.0409   72.0771
   72.2545   72.3106   72.3597   72.3848   72.6459   72.7026   72.7853   72.8035   72.9030   72.9384
   73.0099   73.1015   73.2006   73.2778   73.3409   73.4710   73.5652   73.6743   73.7266   73.8072
   73.8898   73.9343   74.0295   74.0901   74.2194   74.2349   74.3530   74.3851   74.4369   74.5041
   74.7259   74.7950   74.9148   75.1487   75.2885   75.4051   75.4957   75.7773   75.9064   75.9426
   76.0081   76.1602   76.2169   76.3811   76.4005   76.5831   76.7626   76.8580   76.9700   77.0744
   77.1681   77.1737   77.2836   77.4225   77.5086   77.5317   77.7385   77.8432   77.8536   77.8950
   78.1273   78.2867   78.2958   78.5344   78.5647   79.0847   79.2619   79.3310   79.3590   79.6266
   79.8488   79.9107   80.0476   80.0974   80.1707   80.4753   80.6503   81.0748   81.1126   81.1813
   81.2585   81.4756   81.9768   82.2266   82.5378   82.7586   82.8628   83.0219   83.6436   83.6681
   83.6947   83.8848   83.9075   84.1172   84.4379   84.6131   84.6463   85.1910   85.2470   85.4843
   86.0055   86.1366   86.5056   86.9740   87.0370   87.2802   87.4844   87.7750   88.0841   88.2966
   88.4356   88.4487   88.6528   89.0546   89.5459   89.7042   89.7711   90.7820   90.8512   91.6865
   91.9000   92.5288   92.7668   93.0890   93.2154   93.5143   94.2181   94.3638   94.6142   94.7740
   94.9754   95.2794   96.1043   96.4221   96.8398   97.2655   97.6094   97.8174   98.4465   98.6597
   98.8696   99.3027  100.5421  100.8031  101.3470  101.9569  102.3540  102.6707  103.6041  103.8937
  104.2535  104.7120  105.5808  105.8402  106.0852  106.3168  106.9877  107.7082  108.2717  109.5965
  109.9704  110.1390  111.3870  111.9364  112.2826  114.8170  116.4304  117.3305  117.4543  120.2182
  120.5247  121.0207  121.7619  123.5974  124.6459  127.8433  131.8357  136.4597  138.3392  141.7086
  149.5490  154.2656

siesta: PDOS info
siesta: E1 -- E2, sigma [eV], nhist:  -10.000 --   10.000    0.200 500

siesta: Program's energy decomposition (eV):
siesta: Ebs     =     -6672.228336
siesta: Eions   =     31513.654961
siesta: Ena     =      6327.018722
siesta: Ekin    =     14490.717080
siesta: Enl     =     -2358.191093
siesta: Eso     =         0.000000
siesta: Edftu   =         0.000000
siesta: DEna    =      -479.857646
siesta: DUscf   =        59.448743
siesta: DUext   =         0.000000
siesta: Exc     =     -7282.513860
siesta: eta*DQ  =         0.000000
siesta: Emadel  =         0.000000
siesta: Emeta   =         0.000000
siesta: Emolmec =         0.000000
siesta: Ekinion =         6.525606
siesta: Eharris =    -20750.507411
siesta: Etot    =    -20750.507410
siesta: FreeEng =    -20750.507410

siesta: Final energy (eV):
siesta:  Band Struct. =   -6672.228336
siesta:       Kinetic =   14490.717080
siesta:       Hartree =  104242.042995
siesta:       Edftu   =       0.000000
siesta:       Eso     =       0.000000
siesta:    Ext. field =       0.000000
siesta:   Exch.-corr. =   -7282.513860
siesta:  Ion-electron = -221162.986628
siesta:       Ion-ion =   88955.707397
siesta:       Ekinion =       6.525606
siesta:         Total =  -20750.507410
siesta:         Fermi =      -3.381405

siesta: Atomic forces (eV/Ang):
siesta:      1    1.318106   -2.982432    0.076342
siesta:      2    0.661528    0.545548   -1.458627
siesta:      3   -0.670255    2.208680    0.324735
siesta:      4    0.655196   -1.351956   -0.959460
siesta:      5   -0.457279   -0.809288    1.294049
siesta:      6    4.756170    0.481144   -1.746053
siesta:      7    0.619110   -0.973906   -0.698966
siesta:      8    0.577869    0.731075    0.457146
siesta:      9   -0.188915    0.041403    0.447990
siesta:     10    0.454340   -1.245754   -0.212714
siesta:     11   -0.384721   -1.244025    0.028996
siesta:     12   -2.591596    2.923797    0.052148
siesta:     13    2.483071   -2.089593    0.447174
siesta:     14    2.217067    1.561108   -0.334309
siesta:     15   -0.583133    0.398280   -1.115673
siesta:     16   -0.284426    2.590915    0.248752
siesta:     17    0.670717    0.948992    1.353069
siesta:     18   -2.013449    0.627221   -1.072833
siesta:     19    0.682862   -0.303377    0.064060
siesta:     20    1.115401    0.123972   -0.190166
siesta:     21   -0.524528   -0.246657    1.245958
siesta:     22    0.605317    0.748084   -0.021506
siesta:     23   -0.168707    1.994731    0.471636
siesta:     24   -2.796768    1.686052   -0.200498
siesta:     25   -0.136607   -2.357712   -0.444080
siesta:     26   -3.188327    0.601652   -0.458965
siesta:     27    1.176604    1.323493    0.129982
siesta:     28    0.192704   -1.798639    0.796012
siesta:     29   -0.312104   -0.703840   -0.097012
siesta:     30   -0.687179    0.335198   -0.622032
siesta:     31   -0.523255    2.604393    0.368386
siesta:     32   -0.471067   -0.175046    0.156575
siesta:     33   -0.737576    0.263779    0.932930
siesta:     34    0.137888   -0.919864    0.324720
siesta:     35   -0.128484   -0.150730    0.251240
siesta:     36    0.504763   -1.098114    0.137479
siesta:     37   -0.133785   -0.298581   -0.146261
siesta:     38   -0.341470    0.785272   -0.194038
siesta:     39   -0.689880    0.616172   -0.206186
siesta:     40   -0.385779   -0.181740   -0.015171
siesta:     41   -1.612041    0.046680    0.811630
siesta:     42    0.524562   -0.084596    0.567612
siesta:     43   -0.096624   -0.416977    0.197345
siesta:     44    1.012075   -0.529892    0.576688
siesta:     45   -0.718884   -1.284767    0.886873
siesta:     46    0.285366   -1.099725   -1.436076
siesta:     47    0.287637    0.050087   -0.052260
siesta:     48   -0.309627   -0.710331   -1.600750
siesta:     49   -0.572367    0.247556    0.176671
siesta:     50   -0.007231   -0.822630   -0.086134
siesta:     51   -0.109524   -0.604045   -0.247662
siesta:     52    0.242612    0.029091    0.249304
siesta:     53   -0.072086   -0.114650    0.065283
siesta:     54   -0.702141   -0.030553   -1.411732
siesta:     55   -0.141164   -1.267895   -0.190007
siesta:     56   -0.511362   -0.459041    0.198946
siesta:     57   -0.265318   -0.296345   -0.600237
siesta:     58    3.791524   -1.277037    0.409278
siesta:     59    0.514790    1.922594    0.108047
siesta:     60    0.256766   -0.118990   -0.302584
siesta:     61   -0.616396    0.047827    1.177366
siesta:     62    2.021030    0.883503    0.072685
siesta:     63    1.818783   -0.579702    2.125063
siesta:     64   -0.210259   -1.771963   -0.503874
siesta:     65    1.808914    0.321824   -0.276685
siesta:     66   -0.159122   -0.366251    2.248131
siesta:     67   -1.098766    0.658981   -1.525082
siesta:     68   -2.364883    0.328587   -0.478221
siesta:     69   -1.030680    1.599333    0.024563
siesta:     70   -0.699531   -0.332714   -0.773306
siesta:     71    0.795325    0.711715   -1.185896
siesta:     72   -2.359499    0.959990   -1.626799
siesta:     73    1.088893   -0.708250    1.355243
siesta:     74   -1.315441   -0.275968   -0.097100
siesta:     75    0.371597   -1.689960    2.661894
siesta:     76   -0.756274    0.926762   -1.728261
siesta:     77   -1.492637    1.325124    0.199422
siesta:     78    0.685688   -1.268400    1.032412
siesta:     79   -0.799677   -0.541373   -0.930972
siesta:     80    3.967347   -0.797633   -2.070486
siesta:     81   -1.668464   -0.510575    0.156360
siesta:     82    1.775422   -0.743670   -0.194236
siesta:     83   -0.585022   -0.108421   -0.368098
siesta:     84    1.337737    0.024712    1.700750
siesta:     85   -1.066622    1.392335   -0.109268
siesta:     86   -0.915079   -0.029232   -1.082524
siesta:     87    0.289829    0.916571    0.034134
siesta:     88    0.759150   -0.360665    0.783707
siesta:     89    1.654024   -0.140607   -0.491402
siesta:     90   -0.949452   -0.436544    0.130493
siesta:     91    1.599671   -0.018466    1.731958
siesta:     92   -1.054086    0.176023   -1.112222
siesta:     93   -1.519253   -0.317386    0.891351
siesta:     94    0.322470    0.070523    1.028916
siesta:     95   -0.294533    1.455207    0.870580
siesta:     96    0.211717   -1.370994    0.650558
siesta:     97    0.274237    1.401505   -1.840431
siesta:     98   -1.144056    1.272091    0.327273
siesta:     99   -2.035876   -0.814507    0.299602
siesta:    100    0.178503    0.384014   -0.611189
siesta:    101   -0.773073   -1.014151   -1.449455
siesta:    102   -0.358264    1.076329    1.286524
siesta:    103    0.722099    0.785254   -0.627696
siesta:    104    2.829184    1.255243   -0.785301
siesta:    105   -0.541213   -0.457328    1.199250
siesta:    106   -2.550437   -1.317415   -0.386250
siesta:    107    0.570228    1.473390    1.032004
siesta:    108   -2.291103   -0.209056   -1.241604
siesta:    109    0.200704    1.369883   -0.341054
siesta:    110    0.787036    0.694828   -0.854236
siesta:    111    1.523860   -0.694869   -2.617851
siesta:    112    0.866555   -1.485431    1.379185
siesta:    113   -0.238985   -0.096015    0.342325
siesta:    114    0.120805   -0.498646    0.188998
siesta:    115    2.372726   -0.524701   -0.781642
siesta:    116   -0.791222   -0.254595   -0.774631
siesta:    117   -0.216642    1.210054   -0.435024
siesta:    118   -0.845748   -0.407439    0.105258
siesta:    119    0.213829    0.168138   -0.197211
siesta:    120   -0.568523   -0.605860   -0.638664
siesta:    121    1.586497    0.121588    1.206156
siesta:    122    0.077028   -0.575659    0.159134
siesta:    123   -0.023706    0.609002    0.235140
siesta:    124    0.750540   -0.541281    0.913930
siesta:    125    0.380291    0.360895    0.036643
siesta:    126    0.034315   -0.610871   -0.011394
siesta:    127   -0.861248    0.351879   -1.662524
siesta:    128   -0.258769    0.083861   -0.458078
siesta:    129    0.466125   -0.206012   -0.473455
siesta:    130   -0.122517    0.363808   -0.154993
siesta:    131   -0.745195    0.086247   -0.051246
siesta:    132    0.600396   -0.841901    0.032541
siesta:    133    0.689307    0.359228    1.506321
siesta:    134   -0.028580   -0.143483   -0.281103
siesta:    135   -0.340266   -0.913162    0.301011
siesta:    136    0.670576   -0.350231   -0.069649
siesta:    137    0.023598    0.439622    0.340062
siesta:    138    0.090700   -0.245013   -0.147359
siesta:    139    1.214667    0.394807    0.098775
siesta:    140   -0.358660    0.003899   -0.399206
siesta:    141    0.372469   -0.446689    0.133172
siesta:    142    1.270187    1.423452    1.278071
siesta:    143    0.211026   -0.134760   -0.336868
siesta:    144   -1.014066   -0.713685   -0.483635
siesta:    145    0.162351    0.559440    0.631131
siesta:    146   -0.620627   -0.716301    0.463269
siesta:    147    0.197536   -0.099591   -0.796283
siesta:    148   -0.282473   -0.285581   -0.546165
siesta:    149    0.124880   -1.137887    0.493411
siesta:    150   -1.906656   -0.772736   -0.023398
siesta:    151    1.252790    0.009625   -0.055687
siesta:    152    0.017985   -0.214829   -0.410438
siesta:    153    1.000656    1.141849    0.101290
siesta:    154    0.892968   -0.109609   -0.279040
siesta:    155    0.686816   -0.099443    0.167552
siesta:    156   -0.039737   -0.131470   -0.305154
siesta:    157   -0.925289   -0.233088   -0.747785
siesta:    158    0.524433   -0.497179    0.020079
siesta:    159    0.888330    0.061648    0.315335
siesta:    160    0.066025   -0.843952    1.139914
siesta:    161    0.131165    0.413374    0.597812
siesta:    162   -1.080629   -0.471038    0.000716
siesta:    163    0.314202   -0.342274    0.228215
siesta:    164   -0.093289    0.671850    0.696781
siesta:    165   -1.233458    0.042884    1.460481
siesta:    166    0.391656    0.411585   -0.313168
siesta:    167   -0.644840    1.454619   -1.162246
siesta:    168   -0.035447    0.016813   -0.074466
siesta:    169    0.247038   -0.573349   -0.000885
siesta:    170   -0.052698    0.779258   -0.388927
siesta:    171   -0.442221   -0.160597   -0.369974
siesta:    172   -0.054211    0.145223    0.213886
siesta:    173    0.351604   -0.070847    0.997191
siesta:    174   -0.059861   -0.137376   -0.392918
siesta:    175   -0.485124   -0.427642    0.288763
siesta:    176    0.278666    1.232764    0.190309
siesta:    177   -0.823142    0.339734    0.320767
siesta:    178   -0.443591   -2.310887   -0.835712
siesta:    179   -0.885393   -0.779241   -0.524746
siesta:    180    0.318327    0.720657   -0.925133
siesta:    181    0.494675    0.187015    0.884661
siesta:    182   -0.101004    2.295088   -0.397139
siesta:    183   -0.812562   -2.409269    0.999318
siesta:    184   -0.771506   -0.391944    0.483742
siesta:    185   -0.889773   -1.739608   -0.105155
siesta:    186    0.230227    1.228904    0.140371
siesta:    187    0.970279    0.531350   -0.722167
siesta:    188    1.887437    0.144196   -0.005064
siesta:    189   -1.713087    0.525401    0.200263
siesta:    190    1.744160   -1.136089    2.549311
siesta:    191   -0.566964    1.394317    1.314372
siesta:    192   -0.034292    0.381367    0.452678
siesta:    193   -1.445277   -1.244366   -1.486476
siesta:    194   -1.440514   -1.480169   -1.847736
siesta:    195    1.833431   -1.859226   -1.709287
siesta:    196    0.295920   -0.167320    0.249149
siesta:    197    3.301476    2.462391    0.180951
siesta:    198    0.335056   -0.073936    0.264097
siesta:    199    0.633066   -0.648607    0.009848
siesta:    200    0.409845    0.067452   -0.342105
siesta:    201   -1.696153    1.739995    0.976361
siesta:    202    0.653971   -0.027350   -0.441881
siesta:    203    0.838899    1.026501    0.517620
siesta:    204    0.048615    0.118679   -0.002246
siesta:    205    0.404115   -0.006304   -0.039439
siesta:    206    0.069239   -0.614241   -0.365033
siesta:    207    0.092869   -0.066314    0.209607
siesta:    208    1.344878    0.686686   -0.373268
siesta:    209   -0.196453   -0.269209   -0.099574
siesta:    210   -0.264976   -0.144991   -0.124884
siesta:    211    0.126199   -0.269028   -0.034654
siesta:    212   -0.242531   -0.261862    0.249056
siesta:    213    0.219489   -0.411824   -0.300004
siesta:    214   -0.414899    0.293424   -0.156694
siesta:    215   -0.541705   -0.481997    0.129263
siesta:    216    0.091616   -0.085526   -0.073311
siesta:    217    0.411577    0.131866    0.916764
siesta:    218    0.503458   -0.110864    1.162626
siesta:    219    1.093610    0.131372   -0.036908
siesta:    220   -0.134818    0.353839   -0.283598
siesta:    221    0.810740    0.173493    1.276109
siesta:    222    0.205382    0.450329   -0.033666
siesta:    223   -0.227170    0.258174    0.430909
siesta:    224   -0.170263   -0.133166   -1.040663
siesta: ----------------------------------------
siesta:    Tot    9.892666   -2.460221    0.096744

siesta: Stress tensor (static) (eV/Ang**3):
siesta:    -0.000723    0.000203   -0.000253
siesta:     0.000203   -0.000490    0.000099
siesta:    -0.000253    0.000099   -0.000266

siesta: Cell volume =      31874.205367 Ang**3

siesta: Pressure (static):
siesta:                Solid            Molecule  Units
siesta:           0.00000537          0.00000125  Ry/Bohr**3
siesta:           0.00049321          0.00011490  eV/Ang**3
siesta:           0.79021269          0.18408576  kBar
(Free)E+ p_basis*V_orbitals  =      -20699.315448
(Free)Eharris+ p_basis*V_orbitals  =      -20699.315448
     spin moment: S , {S} =   -0.00000       0.0       0.0  -0.00000

siesta: Electric dipole (a.u.)  =    2.394216   -7.880373    2.542615
siesta: Electric dipole (Debye) =    6.085495  -20.029924    6.462687

cite: Please see "siesta.bib" for an exhaustive BiBTeX file.
cite: This calculation has made use of the following articles.
cite: Articles are encouraged to be cited in a published work.
        Primary SIESTA paper
          DOI: www.doi.org/10.1088/0953-8984/14/11/302


timer: Elapsed wall time (sec) =   10408.353
timer: CPU execution times (sec):

Routine            Calls   Time/call    Tot.time        %
siesta                 1   10405.977   10405.977   100.00
Setup                  1       0.425       0.425     0.00
bands                  3     700.374    2101.122    20.19
KSV_init               1       0.000       0.000     0.00
IterGeom              10     514.463    5144.630    49.44
state_init            10       1.141      11.407     0.11
hsparse               10       0.077       0.769     0.01
overlap               10       0.918       9.184     0.09
Setup_H0              10      13.522     135.224     1.30
naefs                 20       0.002       0.049     0.00
MolMec                20       0.000       0.000     0.00
kinefsm               20       0.568      11.354     0.11
nlefsm                20       3.517      70.339     0.68
DHSCF_Init            10       6.920      69.202     0.67
DHSCF1                10       0.036       0.362     0.00
INITMESH              10       0.000       0.000     0.00
DHSCF2                10       6.884      68.840     0.66
REMESH                10       0.834       8.344     0.08
REORD                666       0.019      12.908     0.12
PHION                 10       4.454      44.545     0.43
COMM_BSC            1014       0.016      16.629     0.16
POISON               132       0.878     115.856     1.11
fft                  264       0.343      90.566     0.87
IterSCF              101      47.818    4829.615    46.41
setup_H              111       5.858     650.290     6.25
DHSCF                122       6.574     802.077     7.71
DHSCF3               122       5.817     709.731     6.82
rhoofd               122       1.874     228.624     2.20
XC                   122       0.898     109.584     1.05
GXC-CellXC           122       0.717      87.493     0.84
cellXC               122       0.717      87.490     0.84
vmat                 121       1.582     191.427     1.84
compute_dm           101      41.326    4173.881    40.11
diagon               101      41.316    4172.879    40.10
r-eigvec             202      19.448    3928.565    37.75
r-buildHS            202       0.011       2.195     0.02
rdiag                204      19.439    3965.619    38.11
rdiag1               204       0.974     198.754     1.91
rdiag2               204       1.094     223.254     2.15
rdiag3               204      11.490    2343.953    22.53
rdiag4               204       5.854    1194.150    11.48
r-buildD             101       2.361     238.433     2.29
MIXER                 91       0.030       2.763     0.03
PostSCF               10      16.816     168.158     1.62
DHSCF4                10       9.235      92.346     0.89
dfscf                 10       8.294      82.940     0.80
overfsm               10       0.212       2.124     0.02
state_analysis        10       0.012       0.120     0.00
siesta_move           10       0.005       0.050     0.00
Analysis               1    5260.903    5260.903    50.56
c-eigval             152      13.820    2100.694    20.19
c-buildHS            152       0.034       5.143     0.05
cdiag                152      13.787    2095.550    20.14
cdiag1               152       2.809     426.915     4.10
cdiag2               152       3.490     530.531     5.10
cdiag3               152       7.488    1138.101    10.94
pdos                   1    3155.236    3155.236    30.32
optical                1       0.000       0.000     0.00
  

>> End of run:  14-DEC-2020  11:40:38
Job completed
