Siesta Version  : master-post-4.1-266
Architecture    : unknown
Compiler version: GNU Fortran (Ubuntu 9.3.0-17ubuntu1~20.04) 9.3.0
Compiler flags  : gfortran -O2 -fPIC -ftree-vectorize
PP flags        : -DFC_HAVE_ABORT -DSIESTA__DIAG_2STAGE -DSIESTA__MRRR
Libraries       : libsiestaLAPACK.a libsiestaBLAS.a
Directory       : /home/colinw/siesta/mixture_simulations/asphaltene3PAH1laPAH2
SERIAL version

* Running in serial mode
>> Start of run:  15-DEC-2020  12:48:16

                           ***********************       
                           *  WELCOME TO SIESTA  *       
                           ***********************       

reinit: Reading from standard input
reinit: Dumped input in INPUT_TMP.64405
************************** Dump of input data file ****************************
NumberOfAtoms 221
SpinPolarized yes
#FixSpin .true.
#TotalSpin
NumberOfSpecies 4
MD.TypeOfRun  nose
MD.FinalTimeStep 10
MD.LengthTimeStep 1.0  fs
MD.InitialTemperature 300 K
MD.TargetTemperature  300  K
%block ChemicalSpeciesLabel
1  6  C
2  7  N
3  8  O
4  1  H
%endblock ChemicalSpeciesLabel
PAO.BasisSize szp
 PAO.EnergyShift 0.02 Ry
MeshCutoff          100 Ry
MaxSCFIterations    100
DM.NumberPulay       3
DM.Tolerance         1e-3
WriteDenchar	.true.
%block ProjectedDensityOfStates
-10.0 10.0 0.200 500 eV
%endblock ProjectedDensityOfStates
NetCharge 0.00
%block BandLines
1  1.000  1.000 1.000  L
20 0.00   0.00   0.00  \Gamma
25 2.00   0.000  0.00  X
30 2.00   2.00   2.00  \Gamma
%endblock BandLines
LongOutput .true.
WriteCoorXmol .true.
LatticeConstant 1 Ang
%block LatticeVectors
  34.146233 0.0 0.0
  0.0 37.582352 0.0
  0.0 0.0 24.857795
%endblock LatticeVectors
#UseSaveData .true.
%block kgrid_Monkhorst_Pack
1 0 0 0.0
 0 1 0 0.0
 0 0 1 0.0
%endblock kgrid_Monkhorst_Pack
WriteMDXmol .true.
AtomicCoordinatesFormat Ang
%block AtomicCoordinatesAndAtomicSpecies
13.588984  16.704004 10.335882  1
12.671798  17.562846 10.997145  1
12.526184  18.893081 10.518223  1
13.277921  19.381245 9.447956  1
14.248866  18.543829 8.896945  1
14.430457  17.186498 9.293245  1
13.680759  15.339274 10.722267  1
12.929692  14.920779 11.844639  1
12.104426  15.744593 12.501871  2
11.942641  17.028413 12.086044  1
15.399470  16.314641 8.687440  1
15.423683  14.934219 9.030569  1
14.523990  14.440831 10.032279  1
14.464259  13.073394 10.413386  1
13.766471  12.642530 11.542690  1
13.098521  13.608847 12.308695  1
13.889452  11.186886 11.993267  1
13.592688  10.982204 13.497886  1
13.693892  12.266922 14.333257  1
12.685946  13.263928 13.725472  1
16.380258  16.770595 7.756527  1
17.372839  15.953369 7.193114  1
17.350160  14.607245 7.516025  1
16.393641  14.109988 8.399375  1
10.901246  17.802139 12.884838  1
11.247545  17.986628 14.381859  1
12.540322  18.782759 14.561973  1
10.122170  18.706591 15.139598  1
13.022350  20.769263 8.875269  1
12.020916  20.772393 7.695021  1
11.741372  22.171073 7.081350  1
12.990036  22.821635 6.482015  1
10.644773  22.109470 6.004686  1
15.145610  12.807023 14.418494  1
15.289192  14.076070 15.270242  1
16.726303  14.606812 15.307516  1
17.713974  13.617536 15.904897  1
12.995095  10.266442 11.128137  1
13.198010  8.778267 11.399929  1
18.301347  13.779884 6.994565  3
18.438958  16.555992 6.306692  1
18.038328  16.615414 4.831666  1
19.131558  17.236049 3.969832  1
11.816372  19.571635 10.978514  4
14.865704  18.966151 8.108035  4
15.029431  12.321934 9.875743  4
14.938116  10.895286 11.838094  4
14.249629  10.200572 13.901009  4
12.570588  10.595849 13.618884  4
13.372184  12.026001 15.354977  4
12.656831  14.154867 14.360176  4
11.675397  12.840996 13.719347  4
16.422595  17.825851 7.486699  4
16.440792  13.050480 8.630724  4
9.957985  17.243850 12.803012  4
10.689959  18.779384 12.446091  4
11.378175  17.000383 14.845476  4
12.446932  19.783485 14.126241  4
13.387953  18.279436 14.089136  4
12.776933  18.898412 15.625090  4
9.954242  19.715800 14.746814  4
10.379495  18.807415 16.201343  4
9.178363  18.155407 15.081824  4
13.983496  21.198068 8.567876  4
12.641965  21.418523 9.672812  4
11.067846  20.360095 8.052409  4
12.372442  20.092384 6.908094  4
11.371292  22.828998 7.877155  4
13.467875  22.171511 5.741821  4
13.720626  23.059877 7.259674  4
12.736244  23.764874 5.983013  4
10.898816  21.412904 5.198294  4
10.488766  23.096188 5.549640  4
9.686969  21.800176 6.435605  4
15.554448  13.021448 13.425200  4
15.776508  12.012914 14.832760  4
14.941620  13.879459 16.290948  4
14.658744  14.876549 14.866742  4
16.746510  15.529715 15.899974  4
17.048519  14.876432 14.294466  4
17.392292  13.298065 16.900970  4
18.703762  14.074919 15.992999  4
17.820625  12.730161 15.274137  4
13.181443  10.445287 10.061898  4
11.939451  10.514580 11.299338  4
14.199888  8.458360 11.097256  4
12.470618  8.189335 10.830504  4
13.062423  8.529280 12.456395  4
18.215445  12.902225 7.403289  4
19.376720  15.998490 6.422700  4
18.661563  17.568626 6.668672  4
17.121898  17.206148 4.717532  4
17.818608  15.608498 4.458142  4
19.391900  18.240683 4.318994  4
18.792762  17.318810 2.931733  4
20.039353  16.623883 3.978753  4
4.626451  15.177897 11.162908  1
5.563407  14.091882 10.662668  1
6.635999  14.582431 9.668015  1
7.598863  13.507529 9.159436  1
7.458361  12.179092 9.613593  1
8.284455  11.184592 9.088205  1
8.277163  9.828809 9.339338  2
7.628423  9.371974 9.955336  4
9.196479  9.215381 8.533856  1
9.416873  7.791557 8.356127  1
9.030616  6.833690 9.264508  1
9.241297  5.514252 9.094400  2
9.822704  5.083212 7.953467  1
10.039172  3.705847 7.774692  1
9.790462  2.737273 8.933550  1
8.750993  1.669196 8.563937  1
11.104737  2.109281 9.467511  1
12.134639  3.107977 10.031846  1
11.654688  3.897809 11.242641  1
10.535611  3.225235 6.546010  1
10.878040  4.100810 5.524664  1
10.736347  5.471257 5.724516  1
10.218563  5.983412 6.936718  1
10.072398  7.373516 7.177240  1
10.524932  8.437596 6.173030  1
10.865751  9.813278 6.796879  1
9.834020  10.190106 7.798594  1
9.273646  11.442333 8.151054  1
9.471310  12.768828 7.742924  1
8.626275  13.796343 8.229691  1
8.874666  15.179644 7.671757  1
8.081169  15.440485 6.381935  1
8.289753  16.854123 5.790919  1
7.837816  17.923440 6.788681  1
9.745154  17.049762 5.321302  1
10.029410  18.410012 4.702093  1
3.825942  14.722061 11.757995  4
4.162393  15.720835 10.335424  4
5.152734  15.889463 11.805672  4
4.951047  13.317044 10.184482  4
6.044226  13.637244 11.537823  4
7.218948  15.377867 10.146673  4
6.120184  15.016205 8.802024  4
6.705126  11.900131 10.337515  4
8.536534  7.089126 10.197341  4
9.335682  3.273195 9.773333  4
9.094945  0.992206 7.775777  4
7.823217  2.141010 8.218451  4
8.500274  1.061132 9.440523  4
11.595441  1.535181 8.670465  4
10.861115  1.386869 10.256976  4
12.453403  3.805587 9.249605  4
13.033969  2.551592 10.326830  4
10.725980  4.434269 11.042897  4
12.404256  4.644550 11.527004  4
11.491859  3.242622 12.103953  4
10.667611  2.157117 6.383972  4
11.264229  3.727689 4.584662  4
11.017684  6.127671 4.909251  4
9.718491  8.560667 5.438118  4
11.421479  8.106832 5.637609  4
10.955240  10.565870 6.007372  4
11.837259  9.749349 7.304499  4
10.257868  12.993961 7.026999  4
9.949074  15.280502 7.472690  4
8.656720  15.922676 8.442095  4
7.010762  15.292780 6.573830  4
8.352100  14.693530 5.622897  4
7.641436  16.934782 4.906909  4
8.454476  17.919122 7.691972  4
6.797101  17.753645 7.085782  4
7.894609  18.927153 6.359993  4
9.983802  16.277215 4.579145  4
10.440154  16.912515 6.155385  4
9.338401  18.627284 3.882677  4
11.049411  18.429266 4.304273  4
9.957142  19.209297 5.445710  4
22.566143  26.986228 1.041257  1
23.486282  26.559769 2.140213  1
23.052065  25.601058 3.002063  2
23.854481  25.189348 4.007633  1
25.129083  25.673460 4.250704  1
25.600762  26.662609 3.376512  1
26.821186  27.404901 3.277805  1
28.019688  27.427669 4.020895  1
29.047470  28.299850 3.643268  1
28.896087  29.141625 2.543970  1
27.718585  29.137921 1.790977  1
26.701702  28.259609 2.183447  1
25.458172  28.045333 1.639345  2
25.099822  28.531187 0.830643  4
24.768312  27.083389 2.340808  1
21.620286  26.437693 1.086412  4
23.028732  26.794963 0.068167  4
22.348386  28.055226 1.126908  4
23.426288  24.421340 4.646251  4
25.724586  25.302306 5.075063  4
28.147556  26.775362 4.879514  4
29.972175  28.318959 4.214843  4
29.706020  29.812409 2.266063  4
27.604500  29.795579 0.935503  4
25.785555  7.623305 3.059360  1
26.430632  6.580045 3.914762  1
26.547567  6.828039 5.247159  2
27.124441  5.909880 6.052608  1
27.627533  4.691132 5.628805  1
27.519339  4.410746 4.259576  1
27.900030  3.302496 3.436758  1
28.530077  2.065435 3.685408  1
28.760548  1.184193 2.622425  1
28.373966  1.518374 1.326727  1
27.747606  2.737743 1.054079  1
27.525603  3.606360 2.129129  1
26.941148  4.849739 2.156485  2
26.573640  5.323404 1.344669  4
26.923143  5.361938 3.433443  1
25.481193  8.487825 3.657309  4
24.896533  7.212295 2.571316  4
26.485984  7.965520 2.291375  4
27.175194  6.191810 7.100920  4
28.079491  3.995912 6.324757  4
28.835245  1.795534 4.691941  4
29.246166  0.230057 2.812010  4
28.561595  0.820438 0.513796  4
27.448363  2.994441 0.043175  4
 %endblock AtomicCoordinatesAndAtomicSpecies
************************** End of input data file *****************************

reinit: -----------------------------------------------------------------------
reinit: System Name: 
reinit: -----------------------------------------------------------------------
reinit: System Label: siesta
reinit: -----------------------------------------------------------------------

initatom: Reading input for the pseudopotentials and atomic orbitals ----------
Species number:   1 Atomic number:    6 Label: C
Species number:   2 Atomic number:    7 Label: N
Species number:   3 Atomic number:    8 Label: O
Species number:   4 Atomic number:    1 Label: H

Ground state valence configuration:   2s02  2p02
Reading pseudopotential information in formatted form from C.psf

Valence configuration for pseudopotential generation:
2s( 2.00) rc: 1.54
2p( 2.00) rc: 1.54
3d( 0.00) rc: 1.54
4f( 0.00) rc: 1.54
Ground state valence configuration:   2s02  2p03
Reading pseudopotential information in formatted form from N.psf

Valence configuration for pseudopotential generation:
2s( 2.00) rc: 1.48
2p( 3.00) rc: 1.48
3d( 0.00) rc: 1.48
4f( 0.00) rc: 1.48
Ground state valence configuration:   2s02  2p04
Reading pseudopotential information in formatted form from O.psf

Valence configuration for pseudopotential generation:
2s( 2.00) rc: 1.47
2p( 4.00) rc: 1.47
3d( 0.00) rc: 1.47
4f( 0.00) rc: 1.47
Ground state valence configuration:   1s01
Reading pseudopotential information in formatted form from H.psf

Valence configuration for pseudopotential generation:
1s( 1.00) rc: 1.31
2p( 0.00) rc: 1.31
3d( 0.00) rc: 0.37
4f( 0.00) rc: 1.31
For C, standard SIESTA heuristics set lmxkb to 3
 (one more than the basis l, including polarization orbitals).
Use PS.lmax or PS.KBprojectors blocks to override.
For N, standard SIESTA heuristics set lmxkb to 3
 (one more than the basis l, including polarization orbitals).
Use PS.lmax or PS.KBprojectors blocks to override.
For O, standard SIESTA heuristics set lmxkb to 3
 (one more than the basis l, including polarization orbitals).
Use PS.lmax or PS.KBprojectors blocks to override.
For H, standard SIESTA heuristics set lmxkb to 2
 (one more than the basis l, including polarization orbitals).
Use PS.lmax or PS.KBprojectors blocks to override.

<basis_specs>
===============================================================================
C                    Z=   6    Mass=  12.010        Charge= 0.17977+309
Lmxo=1 Lmxkb= 3    BasisType=split      Semic=F
L=0  Nsemic=0  Cnfigmx=2
          i=1  nzeta=1  polorb=0  (2s)
            splnorm:   0.15000    
               vcte:    0.0000    
               rinn:    0.0000    
               qcoe:    0.0000    
               qyuk:    0.0000    
               qwid:   0.10000E-01
                rcs:    0.0000    
            lambdas:    1.0000    
L=1  Nsemic=0  Cnfigmx=2
          i=1  nzeta=1  polorb=1  (2p)
            splnorm:   0.15000    
               vcte:    0.0000    
               rinn:    0.0000    
               qcoe:    0.0000    
               qyuk:    0.0000    
               qwid:   0.10000E-01
                rcs:    0.0000    
            lambdas:    1.0000    
-------------------------------------------------------------------------------
L=0  Nkbl=1  erefs: 0.17977+309
L=1  Nkbl=1  erefs: 0.17977+309
L=2  Nkbl=1  erefs: 0.17977+309
L=3  Nkbl=1  erefs: 0.17977+309
===============================================================================
</basis_specs>

atom: Called for C                     (Z =   6)

read_vps: Pseudopotential generation method:
read_vps: ATM3      Troullier-Martins                       
Valence charge for ps generation:    4.00000

read_vps: Pseudopotential includes a core correction:
read_vps: Pseudo-core for xc-correction

xc_check: Exchange-correlation functional:
xc_check: Ceperley-Alder
xc_check: WARNING: Pseudopotential generated with GGA PBE functional
V l=0 = -2*Zval/r beyond r=  1.5227
V l=1 = -2*Zval/r beyond r=  1.5227
V l=2 = -2*Zval/r beyond r=  1.5227
V l=3 = -2*Zval/r beyond r=  1.5038
All V_l potentials equal beyond r=  1.5227
This should be close to max(r_c) in ps generation
All pots = -2*Zval/r beyond r=  1.5227

VLOCAL1: 99.0% of the norm of Vloc inside     18.722 Ry
VLOCAL1: 99.9% of the norm of Vloc inside     42.668 Ry
atom: Maximum radius for 4*pi*r*r*local-pseudopot. charge    1.83678
atom: Maximum radius for r*vlocal+2*Zval:    1.58088

KBgen: Kleinman-Bylander projectors: 
GHOST: No ghost state for L =  0
   l= 0   rc=  1.704034   el= -0.998584   Ekb=  5.327875   kbcos=  0.314897
GHOST: No ghost state for L =  1
   l= 1   rc=  1.704034   el= -0.383998   Ekb= -3.785479   kbcos= -0.363289
GHOST: No ghost state for L =  2
   l= 2   rc=  1.791422   el=  0.002326   Ekb= -0.971263   kbcos= -0.009325
GHOST: No ghost state for L =  3
   l= 3   rc=  1.859892   el=  0.003420   Ekb= -0.399672   kbcos= -0.001232

KBgen: Total number of  Kleinman-Bylander projectors:   16
atom: -------------------------------------------------------------------------

atom: SANKEY-TYPE ORBITALS:

SPLIT: Orbitals with angular momentum L= 0

SPLIT: Basis orbitals for state 2s

SPLIT: PAO cut-off radius determined from an
SPLIT: energy shift=  0.020000 Ry

   izeta = 1
                 lambda =    1.000000
                     rc =    4.191849
                 energy =   -0.980459
                kinetic =    0.881507
    potential(screened) =   -1.861966
       potential(ionic) =   -5.449625

SPLIT: Orbitals with angular momentum L= 1

SPLIT: Basis orbitals for state 2p

SPLIT: PAO cut-off radius determined from an
SPLIT: energy shift=  0.020000 Ry

   izeta = 1
                 lambda =    1.000000
                     rc =    4.993604
                 energy =   -0.366127
                kinetic =    2.463190
    potential(screened) =   -2.829316
       potential(ionic) =   -6.291180

POLgen: Perturbative polarization orbital with L=  2

POLgen: Polarization orbital for state 2p

   izeta = 1
                     rc =    4.993604
                 energy =    1.232619
                kinetic =    2.527283
    potential(screened) =   -1.294664
       potential(ionic) =   -4.203101
atom: Total number of Sankey-type orbitals:  9

atm_pop: Valence configuration (for local Pseudopot. screening):
 2s( 2.00)                                                            
 2p( 2.00)                                                            
Vna: chval, zval:    4.00000   4.00000

Vna:  Cut-off radius for the neutral-atom potential:   4.993604
comcore: Pseudo-core radius Rcore=  1.791422

atom: _________________________________________________________________________

<basis_specs>
===============================================================================
N                    Z=   7    Mass=  14.010        Charge= 0.17977+309
Lmxo=1 Lmxkb= 3    BasisType=split      Semic=F
L=0  Nsemic=0  Cnfigmx=2
          i=1  nzeta=1  polorb=0  (2s)
            splnorm:   0.15000    
               vcte:    0.0000    
               rinn:    0.0000    
               qcoe:    0.0000    
               qyuk:    0.0000    
               qwid:   0.10000E-01
                rcs:    0.0000    
            lambdas:    1.0000    
L=1  Nsemic=0  Cnfigmx=2
          i=1  nzeta=1  polorb=1  (2p)
            splnorm:   0.15000    
               vcte:    0.0000    
               rinn:    0.0000    
               qcoe:    0.0000    
               qyuk:    0.0000    
               qwid:   0.10000E-01
                rcs:    0.0000    
            lambdas:    1.0000    
-------------------------------------------------------------------------------
L=0  Nkbl=1  erefs: 0.17977+309
L=1  Nkbl=1  erefs: 0.17977+309
L=2  Nkbl=1  erefs: 0.17977+309
L=3  Nkbl=1  erefs: 0.17977+309
===============================================================================
</basis_specs>

atom: Called for N                     (Z =   7)

read_vps: Pseudopotential generation method:
read_vps: ATM3      Troullier-Martins                       
Valence charge for ps generation:    5.00000

read_vps: Pseudopotential includes a core correction:
read_vps: Pseudo-core for xc-correction

xc_check: Exchange-correlation functional:
xc_check: Ceperley-Alder
xc_check: WARNING: Pseudopotential generated with GGA PBE functional
V l=0 = -2*Zval/r beyond r=  1.4606
V l=1 = -2*Zval/r beyond r=  1.4606
V l=2 = -2*Zval/r beyond r=  1.4606
V l=3 = -2*Zval/r beyond r=  1.4606
All V_l potentials equal beyond r=  1.4606
This should be close to max(r_c) in ps generation
All pots = -2*Zval/r beyond r=  1.4606

VLOCAL1: 99.0% of the norm of Vloc inside     20.347 Ry
VLOCAL1: 99.9% of the norm of Vloc inside     46.372 Ry
atom: Maximum radius for 4*pi*r*r*local-pseudopot. charge    1.76189
atom: Maximum radius for r*vlocal+2*Zval:    1.53550

KBgen: Kleinman-Bylander projectors: 
GHOST: No ghost state for L =  0
   l= 0   rc=  1.634559   el= -1.348537   Ekb=  5.297520   kbcos=  0.333054
GHOST: No ghost state for L =  1
   l= 1   rc=  1.614250   el= -0.512415   Ekb= -5.262296   kbcos= -0.428933
GHOST: No ghost state for L =  2
   l= 2   rc=  1.718383   el=  0.002346   Ekb= -1.271998   kbcos= -0.007619
GHOST: No ghost state for L =  3
   l= 3   rc=  1.761893   el=  0.003449   Ekb= -0.494630   kbcos= -0.001017

KBgen: Total number of  Kleinman-Bylander projectors:   16
atom: -------------------------------------------------------------------------

atom: SANKEY-TYPE ORBITALS:

SPLIT: Orbitals with angular momentum L= 0

SPLIT: Basis orbitals for state 2s

SPLIT: PAO cut-off radius determined from an
SPLIT: energy shift=  0.020000 Ry

   izeta = 1
                 lambda =    1.000000
                     rc =    3.683980
                 energy =   -1.330014
                kinetic =    1.203086
    potential(screened) =   -2.533100
       potential(ionic) =   -8.093205

SPLIT: Orbitals with angular momentum L= 1

SPLIT: Basis orbitals for state 2p

SPLIT: PAO cut-off radius determined from an
SPLIT: energy shift=  0.020000 Ry

   izeta = 1
                 lambda =    1.000000
                     rc =    4.388595
                 energy =   -0.493943
                kinetic =    3.501321
    potential(screened) =   -3.995264
       potential(ionic) =   -9.374806

POLgen: Perturbative polarization orbital with L=  2

POLgen: Polarization orbital for state 2p

   izeta = 1
                     rc =    4.388595
                 energy =    1.759924
                kinetic =    3.542120
    potential(screened) =   -1.782196
       potential(ionic) =   -6.226799
atom: Total number of Sankey-type orbitals:  9

atm_pop: Valence configuration (for local Pseudopot. screening):
 2s( 2.00)                                                            
 2p( 3.00)                                                            
Vna: chval, zval:    5.00000   5.00000

Vna:  Cut-off radius for the neutral-atom potential:   4.388595
comcore: Pseudo-core radius Rcore=  1.554824

atom: _________________________________________________________________________

<basis_specs>
===============================================================================
O                    Z=   8    Mass=  16.000        Charge= 0.17977+309
Lmxo=1 Lmxkb= 3    BasisType=split      Semic=F
L=0  Nsemic=0  Cnfigmx=2
          i=1  nzeta=1  polorb=0  (2s)
            splnorm:   0.15000    
               vcte:    0.0000    
               rinn:    0.0000    
               qcoe:    0.0000    
               qyuk:    0.0000    
               qwid:   0.10000E-01
                rcs:    0.0000    
            lambdas:    1.0000    
L=1  Nsemic=0  Cnfigmx=2
          i=1  nzeta=1  polorb=1  (2p)
            splnorm:   0.15000    
               vcte:    0.0000    
               rinn:    0.0000    
               qcoe:    0.0000    
               qyuk:    0.0000    
               qwid:   0.10000E-01
                rcs:    0.0000    
            lambdas:    1.0000    
-------------------------------------------------------------------------------
L=0  Nkbl=1  erefs: 0.17977+309
L=1  Nkbl=1  erefs: 0.17977+309
L=2  Nkbl=1  erefs: 0.17977+309
L=3  Nkbl=1  erefs: 0.17977+309
===============================================================================
</basis_specs>

atom: Called for O                     (Z =   8)

read_vps: Pseudopotential generation method:
read_vps: ATM3      Troullier-Martins                       
Valence charge for ps generation:    6.00000

read_vps: Pseudopotential includes a core correction:
read_vps: Pseudo-core for xc-correction

xc_check: Exchange-correlation functional:
xc_check: Ceperley-Alder
xc_check: WARNING: Pseudopotential generated with GGA PBE functional
V l=0 = -2*Zval/r beyond r=  1.4482
V l=1 = -2*Zval/r beyond r=  1.4482
V l=2 = -2*Zval/r beyond r=  1.4482
V l=3 = -2*Zval/r beyond r=  1.4482
All V_l potentials equal beyond r=  1.4482
This should be close to max(r_c) in ps generation
All pots = -2*Zval/r beyond r=  1.4482

VLOCAL1: 99.0% of the norm of Vloc inside     20.696 Ry
VLOCAL1: 99.9% of the norm of Vloc inside     47.167 Ry
atom: Maximum radius for 4*pi*r*r*local-pseudopot. charge    1.74697
atom: Maximum radius for r*vlocal+2*Zval:    1.52250

KBgen: Kleinman-Bylander projectors: 
GHOST: No ghost state for L =  0
   l= 0   rc=  1.620715   el= -1.738829   Ekb=  4.895054   kbcos=  0.290645
GHOST: No ghost state for L =  1
   l= 1   rc=  1.600578   el= -0.650915   Ekb= -6.916539   kbcos= -0.494696
GHOST: No ghost state for L =  2
   l= 2   rc=  1.703827   el=  0.002386   Ekb= -1.538961   kbcos= -0.006789
GHOST: No ghost state for L =  3
   l= 3   rc=  1.746967   el=  0.003508   Ekb= -0.568530   kbcos= -0.000966

KBgen: Total number of  Kleinman-Bylander projectors:   16
atom: -------------------------------------------------------------------------

atom: SANKEY-TYPE ORBITALS:

SPLIT: Orbitals with angular momentum L= 0

SPLIT: Basis orbitals for state 2s

SPLIT: PAO cut-off radius determined from an
SPLIT: energy shift=  0.020000 Ry

   izeta = 1
                 lambda =    1.000000
                     rc =    3.305093
                 energy =   -1.720120
                kinetic =    1.583509
    potential(screened) =   -3.303629
       potential(ionic) =  -11.248859

SPLIT: Orbitals with angular momentum L= 1

SPLIT: Basis orbitals for state 2p

SPLIT: PAO cut-off radius determined from an
SPLIT: energy shift=  0.020000 Ry

   izeta = 1
                 lambda =    1.000000
                     rc =    3.937239
                 energy =   -0.631844
                kinetic =    4.616405
    potential(screened) =   -5.248250
       potential(ionic) =  -12.927368

POLgen: Perturbative polarization orbital with L=  2

POLgen: Polarization orbital for state 2p

   izeta = 1
                     rc =    3.937239
                 energy =    2.368129
                kinetic =    4.725445
    potential(screened) =   -2.357315
       potential(ionic) =   -8.649185
atom: Total number of Sankey-type orbitals:  9

atm_pop: Valence configuration (for local Pseudopot. screening):
 2s( 2.00)                                                            
 2p( 4.00)                                                            
Vna: chval, zval:    6.00000   6.00000

Vna:  Cut-off radius for the neutral-atom potential:   3.937239
comcore: Pseudo-core radius Rcore=  1.377587

atom: _________________________________________________________________________

<basis_specs>
===============================================================================
H                    Z=   1    Mass=  1.0100        Charge= 0.17977+309
Lmxo=0 Lmxkb= 2    BasisType=split      Semic=F
L=0  Nsemic=0  Cnfigmx=1
          i=1  nzeta=1  polorb=1  (1s)
            splnorm:   0.15000    
               vcte:    0.0000    
               rinn:    0.0000    
               qcoe:    0.0000    
               qyuk:    0.0000    
               qwid:   0.10000E-01
                rcs:    0.0000    
            lambdas:    1.0000    
-------------------------------------------------------------------------------
L=0  Nkbl=1  erefs: 0.17977+309
L=1  Nkbl=1  erefs: 0.17977+309
L=2  Nkbl=1  erefs: 0.17977+309
===============================================================================
</basis_specs>

atom: Called for H                     (Z =   1)

read_vps: Pseudopotential generation method:
read_vps: ATM3      Troullier-Martins                       
Valence charge for ps generation:    1.00000

xc_check: Exchange-correlation functional:
xc_check: Ceperley-Alder
xc_check: WARNING: Pseudopotential generated with GGA PBE functional
V l=0 = -2*Zval/r beyond r=  1.2977
V l=1 = -2*Zval/r beyond r=  1.2815
V l=2 = -2*Zval/r beyond r=  1.2656
All V_l potentials equal beyond r=  1.2977
This should be close to max(r_c) in ps generation
All pots = -2*Zval/r beyond r=  1.2977

VLOCAL1: 99.0% of the norm of Vloc inside     25.776 Ry
VLOCAL1: 99.9% of the norm of Vloc inside     58.745 Ry
atom: Maximum radius for 4*pi*r*r*local-pseudopot. charge    1.52711
atom: Maximum radius for r*vlocal+2*Zval:    1.28155

KBgen: Kleinman-Bylander projectors: 
GHOST: No ghost state for L =  0
   l= 0   rc=  1.434438   el= -0.456815   Ekb= -1.960338   kbcos= -0.349997
GHOST: No ghost state for L =  1
   l= 1   rc=  1.508111   el=  0.001431   Ekb= -0.423993   kbcos= -0.025386
GHOST: No ghost state for L =  2
   l= 2   rc=  1.546352   el=  0.002365   Ekb= -0.376562   kbcos= -0.002012

KBgen: Total number of  Kleinman-Bylander projectors:    9
atom: -------------------------------------------------------------------------

atom: SANKEY-TYPE ORBITALS:

SPLIT: Orbitals with angular momentum L= 0

SPLIT: Basis orbitals for state 1s

SPLIT: PAO cut-off radius determined from an
SPLIT: energy shift=  0.020000 Ry

   izeta = 1
                 lambda =    1.000000
                     rc =    4.828263
                 energy =   -0.438372
                kinetic =    0.921576
    potential(screened) =   -1.359947
       potential(ionic) =   -1.906664

POLgen: Perturbative polarization orbital with L=  1

POLgen: Polarization orbital for state 1s

   izeta = 1
                     rc =    4.828263
                 energy =    0.711580
                kinetic =    1.391494
    potential(screened) =   -0.679914
       potential(ionic) =   -1.168115
atom: Total number of Sankey-type orbitals:  4

atm_pop: Valence configuration (for local Pseudopot. screening):
 1s( 1.00)                                                            
Vna: chval, zval:    1.00000   1.00000

Vna:  Cut-off radius for the neutral-atom potential:   4.828263

atom: _________________________________________________________________________

prinput: Basis input ----------------------------------------------------------

PAO.BasisType split     

%block ChemicalSpeciesLabel
    1    6 C                       # Species index, atomic number, species label
    2    7 N                       # Species index, atomic number, species label
    3    8 O                       # Species index, atomic number, species label
    4    1 H                       # Species index, atomic number, species label
%endblock ChemicalSpeciesLabel

%block PAO.Basis                 # Define Basis set
C                     2                    # Species label, number of l-shells
 n=2   0   1                         # n, l, Nzeta 
   4.192   
   1.000   
 n=2   1   1 P   1                   # n, l, Nzeta, Polarization, NzetaPol
   4.994   
   1.000   
N                     2                    # Species label, number of l-shells
 n=2   0   1                         # n, l, Nzeta 
   3.684   
   1.000   
 n=2   1   1 P   1                   # n, l, Nzeta, Polarization, NzetaPol
   4.389   
   1.000   
O                     2                    # Species label, number of l-shells
 n=2   0   1                         # n, l, Nzeta 
   3.305   
   1.000   
 n=2   1   1 P   1                   # n, l, Nzeta, Polarization, NzetaPol
   3.937   
   1.000   
H                     1                    # Species label, number of l-shells
 n=1   0   1 P   1                   # n, l, Nzeta, Polarization, NzetaPol
   4.828   
   1.000   
%endblock PAO.Basis

prinput: ----------------------------------------------------------------------

coor:   Atomic-coordinates input format  =     Cartesian coordinates
coor:                                          (in Angstroms)

siesta: Atomic coordinates (Bohr) and species
siesta:     25.67947  31.56601  19.53199  1        1
siesta:     23.94624  33.18898  20.78160  1        2
siesta:     23.67107  35.70276  19.87657  1        3
siesta:     25.09164  36.62526  17.85406  1        4
siesta:     26.92647  35.04277  16.81280  1        5
siesta:     27.26962  32.47779  17.56169  1        6
siesta:     25.85290  28.98704  20.26216  1        7
siesta:     24.43359  28.19620  22.38313  1        8
siesta:     22.87406  29.75298  23.62512  2        9
siesta:     22.56833  32.17905  22.83932  1       10
siesta:     29.10079  30.83022  16.41689  1       11
siesta:     29.14655  28.22160  17.06531  1       12
siesta:     27.44637  27.28923  18.95827  1       13
siesta:     27.33350  24.70514  19.67846  1       14
siesta:     26.01487  23.89093  21.81253  1       15
siesta:     24.75263  25.71700  23.26007  1       16
siesta:     26.24727  21.14016  22.66400  1       17
siesta:     25.68647  20.75337  25.50732  1       18
siesta:     25.87772  23.18113  27.08594  1       19
siesta:     23.97297  25.06520  25.93739  1       20
siesta:     30.95421  31.69184  14.65772  1       21
siesta:     32.82992  30.14751  13.59302  1       22
siesta:     32.78706  27.60370  14.20323  1       23
siesta:     30.97950  26.66402  15.87252  1       24
siesta:     20.60038  33.64118  24.34882  1       25
siesta:     21.25479  33.98981  27.17779  1       26
siesta:     23.69778  35.49428  27.51815  1       27
siesta:     19.12814  35.35035  28.60971  1       28
siesta:     24.60868  39.24823  16.77183  1       29
siesta:     22.71625  39.25415  14.54149  1       30
siesta:     22.18799  41.89727  13.38182  1       31
siesta:     24.54762  43.12666  12.24924  1       32
siesta:     20.11571  41.78086  11.34722  1       33
siesta:     28.62107  24.20178  27.24702  1       34
siesta:     28.89240  26.59993  28.85659  1       35
siesta:     31.60814  27.60289  28.92702  1       36
siesta:     33.47457  25.73342  30.05591  1       37
siesta:     24.55718  19.40077  21.02914  1       38
siesta:     24.94063  16.58853  21.54275  1       39
siesta:     34.58455  26.04022  13.21782  3       40
siesta:     34.84459  31.28630  11.91793  1       41
siesta:     34.08751  31.39859   9.13053  1       42
siesta:     36.15342  32.57143   7.50190  1       43
siesta:     22.32972  36.98504  20.74639  4       44
siesta:     28.09212  35.84085  15.32197  4       45
siesta:     28.40152  23.28509  18.66246  4       46
siesta:     28.22896  20.58911  22.37076  4       47
siesta:     26.92791  19.27630  26.26911  4       48
siesta:     23.75498  20.02326  25.73597  4       49
siesta:     25.26978  22.72586  29.01671  4       50
siesta:     23.91795  26.74883  27.13681  4       51
siesta:     22.06331  24.26598  25.92582  4       52
siesta:     31.03422  33.68599  14.14782  4       53
siesta:     31.06861  24.66184  16.30971  4       54
siesta:     18.81787  32.58617  24.19420  4       55
siesta:     20.20110  35.48791  23.51971  4       56
siesta:     21.50164  32.12608  28.05390  4       57
siesta:     23.52130  37.38538  26.69474  4       58
siesta:     25.29957  34.54314  26.62462  4       59
siesta:     24.14491  35.71284  29.52715  4       60
siesta:     18.81080  37.25748  27.86745  4       61
siesta:     19.61441  35.54088  30.61611  4       62
siesta:     17.34460  34.30876  28.50053  4       63
siesta:     26.42499  40.05856  16.19095  4       64
siesta:     23.88986  40.47516  18.27897  4       65
siesta:     20.91521  38.47502  15.21685  4       66
siesta:     23.38054  37.96912  13.05441  4       67
siesta:     21.48864  43.14057  14.88567  4       68
siesta:     25.45061  41.89810  10.85047  4       69
siesta:     25.92824  43.57687  13.71880  4       70
siesta:     24.06802  44.90912  11.30626  4       71
siesta:     20.59579  40.46454   9.82336  4       72
siesta:     19.82090  43.64549  10.48730  4       73
siesta:     18.30573  41.19638  12.16154  4       74
siesta:     29.39366  24.60698  25.36996  4       75
siesta:     29.81329  22.70113  28.02987  4       76
siesta:     28.23558  26.22839  30.78544  4       77
siesta:     27.70102  28.11261  28.09408  4       78
siesta:     31.64633  29.34692  30.04661  4       79
siesta:     32.21704  28.11239  27.01264  4       80
siesta:     32.86668  25.12971  31.93822  4       81
siesta:     35.34500  26.59775  30.22240  4       82
siesta:     33.67611  24.05653  28.86395  4       83
siesta:     24.90933  19.73874  19.01424  4       84
siesta:     22.56230  19.86968  21.35266  4       85
siesta:     26.83391  15.98399  20.97078  4       86
siesta:     23.56606  15.47561  20.46669  4       87
siesta:     24.68441  16.11801  23.53918  4       88
siesta:     34.42222  24.38168  13.99019  4       89
siesta:     36.61671  30.23278  12.13715  4       90
siesta:     35.26526  33.19990  12.60197  4       91
siesta:     32.35571  32.51492   8.91485  4       92
siesta:     33.67230  29.49580   8.42467  4       93
siesta:     36.64539  34.46991   8.16172  4       94
siesta:     35.51319  32.72782   5.54017  4       95
siesta:     37.86890  31.41460   7.51876  4       96
siesta:      8.74273  28.68208  21.09485  1       97
siesta:     10.51332  26.62981  20.14953  1       98
siesta:     12.54023  27.55681  18.26991  1       99
siesta:     14.35978  25.52554  17.30883  1      100
siesta:     14.09427  23.01516  18.16707  1      101
siesta:     15.65536  21.13582  17.17423  1      102
siesta:     15.64158  18.57376  17.64880  2      103
siesta:     14.41564  17.71047  18.81287  4      104
siesta:     17.37883  17.41455  16.12666  1      105
siesta:     17.79532  14.72391  15.79080  1      106
siesta:     17.06540  12.91381  17.50739  1      107
siesta:     17.46353  10.42043  17.18593  2      108
siesta:     18.56223   9.60588  15.02988  1      109
siesta:     18.97129   7.00304  14.69204  1      110
siesta:     18.50130   5.17270  16.88197  1      111
siesta:     16.53699   3.15432  16.18350  1      112
siesta:     20.98492   3.98596  17.89101  1      113
siesta:     22.93115   5.87323  18.95745  1      114
siesta:     22.02418   7.36579  21.24552  1      115
siesta:     19.90943   6.09481  12.37017  1      116
siesta:     20.55652   7.74941  10.44011  1      117
siesta:     20.28876  10.33918  10.81777  1      118
siesta:     19.31029  11.30701  13.10850  1      119
siesta:     19.03408  13.93393  13.56302  1      120
siesta:     19.88925  15.94475  11.66534  1      121
siesta:     20.53330  18.54442  12.84424  1      122
siesta:     18.58361  19.25652  14.73721  1      123
siesta:     17.52466  21.62288  15.40327  1      124
siesta:     17.89819  24.12960  14.63201  1      125
siesta:     16.30130  26.07132  15.55187  1      126
siesta:     16.77069  28.68538  14.49753  1      127
siesta:     15.27120  29.17830  12.06011  1      128
siesta:     15.66537  31.84969  10.94326  1      129
siesta:     14.81133  33.87041  12.82875  1      130
siesta:     18.41568  32.21939  10.05581  1      131
siesta:     18.95285  34.78989   8.88567  1      132
siesta:      7.22999  27.82067  22.21940  4      133
siesta:      7.86579  29.70808  19.53113  4      134
siesta:      9.73726  30.02675  22.30950  4      135
siesta:      9.35613  25.16558  19.24589  4      136
siesta:     11.42194  25.77067  21.80333  4      137
siesta:     13.64184  29.05997  19.17444  4      138
siesta:     11.56548  28.37653  16.63342  4      139
siesta:     12.67086  22.48800  19.53508  4      140
siesta:     16.13172  13.39651  19.27019  4      141
siesta:     17.64189   6.18544  18.46893  4      142
siesta:     17.18696   1.87500  14.69409  4      143
siesta:     14.78374   4.04592  15.53063  4      144
siesta:     16.06320   2.00525  17.84001  4      145
siesta:     21.91222   2.90107  16.38481  4      146
siesta:     20.52454   2.62080  19.38288  4      147
siesta:     23.53353   7.19152  17.47923  4      148
siesta:     24.63064   4.82181  19.51489  4      149
siesta:     20.26917   8.37956  20.86806  4      150
siesta:     23.44066   8.77693  21.78289  4      151
siesta:     21.71647   6.12767  22.87317  4      152
siesta:     20.15887   4.07636  12.06396  4      153
siesta:     21.28632   7.04431   8.66376  4      154
siesta:     20.82041  11.57962   9.27714  4      155
siesta:     18.36529  16.17732  10.27656  4      156
siesta:     21.58348  15.31970  10.65354  4      157
siesta:     20.70241  19.96661  11.35229  4      158
siesta:     22.36919  18.42361  13.80351  4      159
siesta:     19.38457  24.55504  13.27911  4      160
siesta:     18.80103  28.87598  14.12134  4      161
siesta:     16.35884  30.08951  15.95325  4      162
siesta:     13.24843  28.89918  12.42274  4      163
siesta:     15.78319  27.76676  10.62574  4      164
siesta:     14.44023  32.00211   9.27272  4      165
siesta:     15.97665  33.86225  14.53573  4      166
siesta:     12.84466  33.54954  13.39019  4      167
siesta:     14.91865  35.76715  12.01865  4      168
siesta:     18.86666  30.75949   8.65333  4      169
siesta:     19.72904  31.96003  11.63200  4      170
siesta:     17.64703  35.20048   7.33720  4      171
siesta:     20.88037  34.82628   8.13390  4      172
siesta:     18.81628  36.30032  10.29090  4      173
siesta:     42.64385  50.99660   1.96769  1      174
siesta:     44.38266  50.19071   4.04442  1      175
siesta:     43.56211  48.37901   5.67308  2      176
siesta:     45.07845  47.60099   7.57333  1      177
siesta:     47.48710  48.51583   8.03267  1      178
siesta:     48.37845  50.38505   6.38069  1      179
siesta:     50.68472  51.78778   6.19416  1      180
siesta:     52.94956  51.83080   7.59839  1      181
siesta:     54.89178  53.47899   6.88478  1      182
siesta:     54.60571  55.06971   4.80741  1      183
siesta:     52.38056  55.06271   3.38446  1      184
siesta:     50.45892  53.40294   4.12612  1      185
siesta:     48.10899  52.99802   3.09791  2      186
siesta:     47.43181  53.91615   1.56969  4      187
siesta:     46.80534  51.18021   4.42349  1      188
siesta:     40.85644  49.96002   2.05302  4      189
siesta:     43.51801  50.63516   0.12882  4      190
siesta:     42.23235  53.01671   2.12955  4      191
siesta:     44.26929  46.14966   8.78015  4      192
siesta:     48.61244  47.81445   9.59048  4      193
siesta:     53.19119  50.59812   9.22095  4      194
siesta:     56.63922  53.51510   7.96490  4      195
siesta:     56.13626  56.33731   4.28224  4      196
siesta:     52.16497  56.30551   1.76785  4      197
siesta:     48.72766  14.40596   5.78135  1      198
siesta:     49.94668  12.43449   7.39783  1      199
siesta:     50.16765  12.90313   9.91570  2      200
siesta:     51.25779  11.16806  11.43778  1      201
siesta:     52.20849   8.86496  10.63690  1      202
siesta:     52.00403   8.33511   8.04944  1      203
siesta:     52.72344   6.24082   6.49453  1      204
siesta:     53.91405   3.90311   6.96441  1      205
siesta:     54.34958   2.23780   4.95567  1      206
siesta:     53.61905   2.86931   2.50715  1      207
siesta:     52.43540   5.17359   1.99192  1      208
siesta:     52.01587   6.81504   4.02347  1      209
siesta:     50.91141   9.16468   4.07517  2      210
siesta:     50.21692  10.05978   2.54106  4      211
siesta:     50.87739  10.13260   6.48827  1      212
siesta:     48.15250  16.03967   6.91132  4      213
siesta:     47.04765  13.62927   4.85908  4      214
siesta:     50.05128  15.05266   4.33007  4      215
siesta:     51.35369  11.70083  13.41880  4      216
siesta:     53.06257   7.55118  11.95206  4      217
siesta:     54.49074   3.39307   8.86649  4      218
siesta:     55.26727   0.43474   5.31393  4      219
siesta:     53.97361   1.55040   0.97093  4      220
siesta:     51.86991   5.65868   0.08159  4      221

siesta: System type = molecule  

initatomlists: Number of atoms, orbitals, and projectors:    221  1414  2731

coxmol: Writing XMOL coordinates into file siesta.xyz                                                          

siesta: ******************** Simulation parameters ****************************
siesta:
siesta: The following are some of the parameters of the simulation.
siesta: A complete list of the parameters used, including default values,
siesta: can be found in file out.fdf
siesta:
redata: Spin configuration                          = collinear
redata: Number of spin components                   = 2
redata: Time-Reversal Symmetry                      = T
redata: Spin spiral                                 = F
redata: Long output                                 =   T
redata: Number of Atomic Species                    =        4
redata: Charge density info will appear in .RHO file
redata: Write Mulliken Pop.                         = Atomic and Orbital charges
redata: Matel table size (NRTAB)                    =     1024
redata: Mesh Cutoff                                 =   100.0000 Ry
redata: Net charge of the system                    =     0.0000 |e|
redata: Min. number of SCF Iter                     =        0
redata: Max. number of SCF Iter                     =      100
redata: SCF convergence failure will abort job
redata: SCF mix quantity                            = Hamiltonian
redata: Mix DM or H after convergence               =   F
redata: Recompute H after scf cycle                 =   F
redata: Mix DM in first SCF step                    =   T
redata: Write Pulay info on disk                    =   F
redata: New DM Occupancy tolerance                  = 0.000000000001
redata: No kicks to SCF
redata: DM Mixing Weight for Kicks                  =     0.5000
redata: Require Harris convergence for SCF          =   F
redata: Harris energy tolerance for SCF             =     0.000100 eV
redata: Require DM convergence for SCF              =   T
redata: DM tolerance for SCF                        =     0.001000
redata: Require EDM convergence for SCF             =   F
redata: EDM tolerance for SCF                       =     0.001000 eV
redata: Require H convergence for SCF               =   T
redata: Hamiltonian tolerance for SCF               =     0.001000 eV
redata: Require (free) Energy convergence for SCF   =   F
redata: (free) Energy tolerance for SCF             =     0.000100 eV
redata: Antiferro initial spin density              =   F
redata: Using Saved Data (generic)                  =   F
redata: Use continuation files for DM               =   F
redata: Neglect nonoverlap interactions             =   F
redata: Method of Calculation                       = Diagonalization
redata: Electronic Temperature                      =   299.9869 K
redata: Fix the spin of the system                  =   F
redata: Max. number of TDED Iter                    =        1
redata: Number of TDED substeps                     =        3
redata: Dynamics option                             = Nose thermostat MD run
redata: Initial MD time step                        =        1
redata:   Final MD time step                        =       10
redata: Length of MD time step                      =     1.0000 fs
redata: Initial Temperature of MD run               =   300.0000 K
redata: Perform a MD quench                         =   F
redata: Nose mass                                   =  1360.5800 eV/fs**2
redata: Target Temperature                          =   300.0000 Kelvin
mix.SCF: Pulay mixing                            = Pulay
mix.SCF:    Variant                              = stable
mix.SCF:    History steps                        = 3
mix.SCF:    Linear mixing weight                 =     0.250000
mix.SCF:    Mixing weight                        =     0.250000
mix.SCF:    SVD condition                        = 0.1000E-07
mix.SCF: Spin-component mixing                   all
redata: ***********************************************************************

%block SCF.Mixers
  Pulay
%endblock SCF.Mixers

%block SCF.Mixer.Pulay
  # Mixing method
  method pulay
  variant stable

  # Mixing options
  weight 0.2500
  weight.linear 0.2500
  history 3
%endblock SCF.Mixer.Pulay

Size of DM history Fstack: 1
Total number of electrons:   548.000000
Total ionic charge:   548.000000
 Kpoints in:            1 . Kpoints trimmed:            1

siesta: k-point coordinates (Bohr**-1) and weights:
siesta:          1  0.000000E+00  0.000000E+00  0.000000E+00   0.100000E+01

siesta: k-grid: Number of k-points =         1
siesta: k-points from Monkhorst-Pack grid
siesta: k-cutoff (effective) =    12.429 Ang
siesta: k-point supercell and displacements
siesta: k-grid:    1   0   0      0.000
siesta: k-grid:    0   1   0      0.000
siesta: k-grid:    0   0   1      0.000
 Kpoints in:            1 . Kpoints trimmed:            1

siesta: PDOS k-point coordinates (Bohr**-1) and weights:
siesta:          1  0.000000E+00  0.000000E+00  0.000000E+00   0.100000E+01

siesta: PDOS k-grid: Number of k-points =         1
siesta: PDOS k-points from Monkhorst-Pack grid
siesta: PDOS k-cutoff (effective) =     0.000 Ang
siesta: PDOS k-point supercell and displacements
siesta: k-grid:    1   0   0      0.000
siesta: k-grid:    0   1   0      0.000
siesta: k-grid:    0   0   1      0.000

diag: Algorithm                                     = D&C
diag: Used triangular part                          = Lower
diag: Absolute tolerance                            =  0.100E-15
diag: Orthogonalization factor                      =  0.100E-05
diag: Memory factor                                 =  1.0000
Using LatticeConstant from fdf file for BandLinesScale:    1.889727 Bohr
Beware any cell changes by the end of the run
Using LatticeConstant from fdf file for BandLinesScale:    1.889727 Bohr
Beware any cell changes by the end of the run


ts: **************************************************************
ts: Save H and S matrices                           =    F
ts: Save DM and EDM matrices                        =    F
ts: Only save the overlap matrix S                  =    F
ts: **************************************************************

************************ Begin: TS CHECKS AND WARNINGS ************************
************************ End: TS CHECKS AND WARNINGS **************************


                     ====================================
                        Begin MD step =      1
                     ====================================

outcoor: Atomic coordinates (Ang):                          
   13.58898400   16.70400400   10.33588200   1       1  C
   12.67179800   17.56284600   10.99714500   1       2  C
   12.52618400   18.89308100   10.51822300   1       3  C
   13.27792100   19.38124500    9.44795600   1       4  C
   14.24886600   18.54382900    8.89694500   1       5  C
   14.43045700   17.18649800    9.29324500   1       6  C
   13.68075900   15.33927400   10.72226700   1       7  C
   12.92969200   14.92077900   11.84463900   1       8  C
   12.10442600   15.74459300   12.50187100   2       9  N
   11.94264100   17.02841300   12.08604400   1      10  C
   15.39947000   16.31464100    8.68744000   1      11  C
   15.42368300   14.93421900    9.03056900   1      12  C
   14.52399000   14.44083100   10.03227900   1      13  C
   14.46425900   13.07339400   10.41338600   1      14  C
   13.76647100   12.64253000   11.54269000   1      15  C
   13.09852100   13.60884700   12.30869500   1      16  C
   13.88945200   11.18688600   11.99326700   1      17  C
   13.59268800   10.98220400   13.49788600   1      18  C
   13.69389200   12.26692200   14.33325700   1      19  C
   12.68594600   13.26392800   13.72547200   1      20  C
   16.38025800   16.77059500    7.75652700   1      21  C
   17.37283900   15.95336900    7.19311400   1      22  C
   17.35016000   14.60724500    7.51602500   1      23  C
   16.39364100   14.10998800    8.39937500   1      24  C
   10.90124600   17.80213900   12.88483800   1      25  C
   11.24754500   17.98662800   14.38185900   1      26  C
   12.54032200   18.78275900   14.56197300   1      27  C
   10.12217000   18.70659100   15.13959800   1      28  C
   13.02235000   20.76926300    8.87526900   1      29  C
   12.02091600   20.77239300    7.69502100   1      30  C
   11.74137200   22.17107300    7.08135000   1      31  C
   12.99003600   22.82163500    6.48201500   1      32  C
   10.64477300   22.10947000    6.00468600   1      33  C
   15.14561000   12.80702300   14.41849400   1      34  C
   15.28919200   14.07607000   15.27024200   1      35  C
   16.72630300   14.60681200   15.30751600   1      36  C
   17.71397400   13.61753600   15.90489700   1      37  C
   12.99509500   10.26644200   11.12813700   1      38  C
   13.19801000    8.77826700   11.39992900   1      39  C
   18.30134700   13.77988400    6.99456500   3      40  O
   18.43895800   16.55599200    6.30669200   1      41  C
   18.03832800   16.61541400    4.83166600   1      42  C
   19.13155800   17.23604900    3.96983200   1      43  C
   11.81637200   19.57163500   10.97851400   4      44  H
   14.86570400   18.96615100    8.10803500   4      45  H
   15.02943100   12.32193400    9.87574300   4      46  H
   14.93811600   10.89528600   11.83809400   4      47  H
   14.24962900   10.20057200   13.90100900   4      48  H
   12.57058800   10.59584900   13.61888400   4      49  H
   13.37218400   12.02600100   15.35497700   4      50  H
   12.65683100   14.15486700   14.36017600   4      51  H
   11.67539700   12.84099600   13.71934700   4      52  H
   16.42259500   17.82585100    7.48669900   4      53  H
   16.44079200   13.05048000    8.63072400   4      54  H
    9.95798500   17.24385000   12.80301200   4      55  H
   10.68995900   18.77938400   12.44609100   4      56  H
   11.37817500   17.00038300   14.84547600   4      57  H
   12.44693200   19.78348500   14.12624100   4      58  H
   13.38795300   18.27943600   14.08913600   4      59  H
   12.77693300   18.89841200   15.62509000   4      60  H
    9.95424200   19.71580000   14.74681400   4      61  H
   10.37949500   18.80741500   16.20134300   4      62  H
    9.17836300   18.15540700   15.08182400   4      63  H
   13.98349600   21.19806800    8.56787600   4      64  H
   12.64196500   21.41852300    9.67281200   4      65  H
   11.06784600   20.36009500    8.05240900   4      66  H
   12.37244200   20.09238400    6.90809400   4      67  H
   11.37129200   22.82899800    7.87715500   4      68  H
   13.46787500   22.17151100    5.74182100   4      69  H
   13.72062600   23.05987700    7.25967400   4      70  H
   12.73624400   23.76487400    5.98301300   4      71  H
   10.89881600   21.41290400    5.19829400   4      72  H
   10.48876600   23.09618800    5.54964000   4      73  H
    9.68696900   21.80017600    6.43560500   4      74  H
   15.55444800   13.02144800   13.42520000   4      75  H
   15.77650800   12.01291400   14.83276000   4      76  H
   14.94162000   13.87945900   16.29094800   4      77  H
   14.65874400   14.87654900   14.86674200   4      78  H
   16.74651000   15.52971500   15.89997400   4      79  H
   17.04851900   14.87643200   14.29446600   4      80  H
   17.39229200   13.29806500   16.90097000   4      81  H
   18.70376200   14.07491900   15.99299900   4      82  H
   17.82062500   12.73016100   15.27413700   4      83  H
   13.18144300   10.44528700   10.06189800   4      84  H
   11.93945100   10.51458000   11.29933800   4      85  H
   14.19988800    8.45836000   11.09725600   4      86  H
   12.47061800    8.18933500   10.83050400   4      87  H
   13.06242300    8.52928000   12.45639500   4      88  H
   18.21544500   12.90222500    7.40328900   4      89  H
   19.37672000   15.99849000    6.42270000   4      90  H
   18.66156300   17.56862600    6.66867200   4      91  H
   17.12189800   17.20614800    4.71753200   4      92  H
   17.81860800   15.60849800    4.45814200   4      93  H
   19.39190000   18.24068300    4.31899400   4      94  H
   18.79276200   17.31881000    2.93173300   4      95  H
   20.03935300   16.62388300    3.97875300   4      96  H
    4.62645100   15.17789700   11.16290800   1      97  C
    5.56340700   14.09188200   10.66266800   1      98  C
    6.63599900   14.58243100    9.66801500   1      99  C
    7.59886300   13.50752900    9.15943600   1     100  C
    7.45836100   12.17909200    9.61359300   1     101  C
    8.28445500   11.18459200    9.08820500   1     102  C
    8.27716300    9.82880900    9.33933800   2     103  N
    7.62842300    9.37197400    9.95533600   4     104  H
    9.19647900    9.21538100    8.53385600   1     105  C
    9.41687300    7.79155700    8.35612700   1     106  C
    9.03061600    6.83369000    9.26450800   1     107  C
    9.24129700    5.51425200    9.09440000   2     108  N
    9.82270400    5.08321200    7.95346700   1     109  C
   10.03917200    3.70584700    7.77469200   1     110  C
    9.79046200    2.73727300    8.93355000   1     111  C
    8.75099300    1.66919600    8.56393700   1     112  C
   11.10473700    2.10928100    9.46751100   1     113  C
   12.13463900    3.10797700   10.03184600   1     114  C
   11.65468800    3.89780900   11.24264100   1     115  C
   10.53561100    3.22523500    6.54601000   1     116  C
   10.87804000    4.10081000    5.52466400   1     117  C
   10.73634700    5.47125700    5.72451600   1     118  C
   10.21856300    5.98341200    6.93671800   1     119  C
   10.07239800    7.37351600    7.17724000   1     120  C
   10.52493200    8.43759600    6.17303000   1     121  C
   10.86575100    9.81327800    6.79687900   1     122  C
    9.83402000   10.19010600    7.79859400   1     123  C
    9.27364600   11.44233300    8.15105400   1     124  C
    9.47131000   12.76882800    7.74292400   1     125  C
    8.62627500   13.79634300    8.22969100   1     126  C
    8.87466600   15.17964400    7.67175700   1     127  C
    8.08116900   15.44048500    6.38193500   1     128  C
    8.28975300   16.85412300    5.79091900   1     129  C
    7.83781600   17.92344000    6.78868100   1     130  C
    9.74515400   17.04976200    5.32130200   1     131  C
   10.02941000   18.41001200    4.70209300   1     132  C
    3.82594200   14.72206100   11.75799500   4     133  H
    4.16239300   15.72083500   10.33542400   4     134  H
    5.15273400   15.88946300   11.80567200   4     135  H
    4.95104700   13.31704400   10.18448200   4     136  H
    6.04422600   13.63724400   11.53782300   4     137  H
    7.21894800   15.37786700   10.14667300   4     138  H
    6.12018400   15.01620500    8.80202400   4     139  H
    6.70512600   11.90013100   10.33751500   4     140  H
    8.53653400    7.08912600   10.19734100   4     141  H
    9.33568200    3.27319500    9.77333300   4     142  H
    9.09494500    0.99220600    7.77577700   4     143  H
    7.82321700    2.14101000    8.21845100   4     144  H
    8.50027400    1.06113200    9.44052300   4     145  H
   11.59544100    1.53518100    8.67046500   4     146  H
   10.86111500    1.38686900   10.25697600   4     147  H
   12.45340300    3.80558700    9.24960500   4     148  H
   13.03396900    2.55159200   10.32683000   4     149  H
   10.72598000    4.43426900   11.04289700   4     150  H
   12.40425600    4.64455000   11.52700400   4     151  H
   11.49185900    3.24262200   12.10395300   4     152  H
   10.66761100    2.15711700    6.38397200   4     153  H
   11.26422900    3.72768900    4.58466200   4     154  H
   11.01768400    6.12767100    4.90925100   4     155  H
    9.71849100    8.56066700    5.43811800   4     156  H
   11.42147900    8.10683200    5.63760900   4     157  H
   10.95524000   10.56587000    6.00737200   4     158  H
   11.83725900    9.74934900    7.30449900   4     159  H
   10.25786800   12.99396100    7.02699900   4     160  H
    9.94907400   15.28050200    7.47269000   4     161  H
    8.65672000   15.92267600    8.44209500   4     162  H
    7.01076200   15.29278000    6.57383000   4     163  H
    8.35210000   14.69353000    5.62289700   4     164  H
    7.64143600   16.93478200    4.90690900   4     165  H
    8.45447600   17.91912200    7.69197200   4     166  H
    6.79710100   17.75364500    7.08578200   4     167  H
    7.89460900   18.92715300    6.35999300   4     168  H
    9.98380200   16.27721500    4.57914500   4     169  H
   10.44015400   16.91251500    6.15538500   4     170  H
    9.33840100   18.62728400    3.88267700   4     171  H
   11.04941100   18.42926600    4.30427300   4     172  H
    9.95714200   19.20929700    5.44571000   4     173  H
   22.56614300   26.98622800    1.04125700   1     174  C
   23.48628200   26.55976900    2.14021300   1     175  C
   23.05206500   25.60105800    3.00206300   2     176  N
   23.85448100   25.18934800    4.00763300   1     177  C
   25.12908300   25.67346000    4.25070400   1     178  C
   25.60076200   26.66260900    3.37651200   1     179  C
   26.82118600   27.40490100    3.27780500   1     180  C
   28.01968800   27.42766900    4.02089500   1     181  C
   29.04747000   28.29985000    3.64326800   1     182  C
   28.89608700   29.14162500    2.54397000   1     183  C
   27.71858500   29.13792100    1.79097700   1     184  C
   26.70170200   28.25960900    2.18344700   1     185  C
   25.45817200   28.04533300    1.63934500   2     186  N
   25.09982200   28.53118700    0.83064300   4     187  H
   24.76831200   27.08338900    2.34080800   1     188  C
   21.62028600   26.43769300    1.08641200   4     189  H
   23.02873200   26.79496300    0.06816700   4     190  H
   22.34838600   28.05522600    1.12690800   4     191  H
   23.42628800   24.42134000    4.64625100   4     192  H
   25.72458600   25.30230600    5.07506300   4     193  H
   28.14755600   26.77536200    4.87951400   4     194  H
   29.97217500   28.31895900    4.21484300   4     195  H
   29.70602000   29.81240900    2.26606300   4     196  H
   27.60450000   29.79557900    0.93550300   4     197  H
   25.78555500    7.62330500    3.05936000   1     198  C
   26.43063200    6.58004500    3.91476200   1     199  C
   26.54756700    6.82803900    5.24715900   2     200  N
   27.12444100    5.90988000    6.05260800   1     201  C
   27.62753300    4.69113200    5.62880500   1     202  C
   27.51933900    4.41074600    4.25957600   1     203  C
   27.90003000    3.30249600    3.43675800   1     204  C
   28.53007700    2.06543500    3.68540800   1     205  C
   28.76054800    1.18419300    2.62242500   1     206  C
   28.37396600    1.51837400    1.32672700   1     207  C
   27.74760600    2.73774300    1.05407900   1     208  C
   27.52560300    3.60636000    2.12912900   1     209  C
   26.94114800    4.84973900    2.15648500   2     210  N
   26.57364000    5.32340400    1.34466900   4     211  H
   26.92314300    5.36193800    3.43344300   1     212  C
   25.48119300    8.48782500    3.65730900   4     213  H
   24.89653300    7.21229500    2.57131600   4     214  H
   26.48598400    7.96552000    2.29137500   4     215  H
   27.17519400    6.19181000    7.10092000   4     216  H
   28.07949100    3.99591200    6.32475700   4     217  H
   28.83524500    1.79553400    4.69194100   4     218  H
   29.24616600    0.23005700    2.81201000   4     219  H
   28.56159500    0.82043800    0.51379600   4     220  H
   27.44836300    2.99444100    0.04317500   4     221  H

outcell: Unit cell vectors (Ang):
       34.146233    0.000000    0.000000
        0.000000   37.582352    0.000000
        0.000000    0.000000   24.857795

outcell: Cell vector modules (Ang)   :   34.146233   37.582352   24.857795
outcell: Cell angles (23,13,12) (deg):     90.0000     90.0000     90.0000
outcell: Cell volume (Ang**3)        :  31899.9026
<dSpData1D:S at geom step 1
  <sparsity:sparsity for geom step 1
    nrows_g=1414 nrows=1414 sparsity=.1439 nnzs=287714, refcount: 7>
  <dData1D:(new from dSpData1D) n=287714, refcount: 1>
refcount: 1>
new_DM -- step:     1
Initializing Density Matrix...
DM filled with atomic data:
<dSpData2D:DM initialized from atoms
  <sparsity:sparsity for geom step 1
    nrows_g=1414 nrows=1414 sparsity=.1439 nnzs=287714, refcount: 8>
  <dData2D:DM n=287714 m=2, refcount: 1>
refcount: 1>
     spin moment: S , {S} =  334.00000       0.0       0.0 334.00000
No. of atoms with KB's overlaping orbs in proc 0. Max # of overlaps:     221     160

InitMesh: MESH = 216 x 240 x 150 = 7776000
InitMesh: Mesh cutoff (required, used) =   100.000   100.637 Ry
New grid distribution [1]: sub = 2

stepf: Fermi-Dirac step function

siesta: Program's energy decomposition (eV):
siesta: Ebs     =     -6602.154857
siesta: Eions   =     30723.207636
siesta: Ena     =      6398.228603
siesta: Ekin    =     13532.928483
siesta: Enl     =     -1889.123733
siesta: Eso     =         0.000000
siesta: Edftu   =         0.000000
siesta: DEna    =      -181.893156
siesta: DUscf   =        63.875425
siesta: DUext   =         0.000000
siesta: Exc     =     -7059.700178
siesta: eta*DQ  =         0.000000
siesta: Emadel  =         0.000000
siesta: Emeta   =         0.000000
siesta: Emolmec =         0.000000
siesta: Ekinion =         0.000000
siesta: Eharris =    -19803.221617
siesta: Etot    =    -19858.892193
siesta: FreeEng =    -19858.928556

        iscf     Eharris(eV)        E_KS(eV)     FreeEng(eV)     dDmax    Ef(eV) dHmax(eV)
   scf:    1   -19803.221617   -19858.892193   -19858.928556  0.855476 -5.005354 10.727069
     spin moment: S , {S} =    9.10945       0.0       0.0   9.10945
timer: Routine,Calls,Time,% = IterSCF        1      24.066  47.86
   scf:    2   -19885.953679   -19884.400724   -19884.403722  0.326021 -4.783710 10.067586
     spin moment: S , {S} =    2.01936       0.0       0.0   2.01936
   scf:    3   -19876.118605   -19887.993417   -19887.993871  0.164284 -4.757137  7.210243
     spin moment: S , {S} =    1.99801       0.0       0.0   1.99801
   scf:    4   -19899.102010   -19895.741505   -19895.742227  0.090863 -4.640897  2.303248
     spin moment: S , {S} =    0.00374       0.0       0.0   0.00374
   scf:    5   -19897.707701   -19896.867080   -19896.867080  0.023088 -4.551613  1.090878
     spin moment: S , {S} =    0.00000       0.0       0.0   0.00000
   scf:    6   -19897.414198   -19897.158401   -19897.158401  0.014632 -4.452251  0.595553
     spin moment: S , {S} =    0.00000       0.0       0.0   0.00000
   scf:    7   -19897.323753   -19897.242586   -19897.242586  0.009190 -4.679821  0.284110
     spin moment: S , {S} =   -0.00000       0.0       0.0  -0.00000
   scf:    8   -19897.277652   -19897.261004   -19897.261004  0.004216 -4.695123  0.080529
     spin moment: S , {S} =   -0.00000       0.0       0.0  -0.00000
   scf:    9   -19897.267540   -19897.264356   -19897.264356  0.001671 -4.703248  0.049725
     spin moment: S , {S} =   -0.00000       0.0       0.0  -0.00000
   scf:   10   -19897.266989   -19897.265664   -19897.265664  0.001214 -4.711452  0.022307
     spin moment: S , {S} =   -0.00000       0.0       0.0  -0.00000
   scf:   11   -19897.266915   -19897.266269   -19897.266269  0.001010 -4.715297  0.014413
     spin moment: S , {S} =   -0.00000       0.0       0.0  -0.00000
   scf:   12   -19897.266805   -19897.266526   -19897.266526  0.000828 -4.716791  0.007831
     spin moment: S , {S} =   -0.00000       0.0       0.0  -0.00000
   scf:   13   -19897.266689   -19897.266602   -19897.266602  0.000537 -4.716435  0.004309
     spin moment: S , {S} =    0.00000       0.0       0.0   0.00000
   scf:   14   -19897.266639   -19897.266620   -19897.266620  0.000252 -4.715941  0.001985
     spin moment: S , {S} =   -0.00000       0.0       0.0  -0.00000
   scf:   15   -19897.266628   -19897.266624   -19897.266624  0.000116 -4.715618  0.001214
     spin moment: S , {S} =    0.00000       0.0       0.0   0.00000
   scf:   16   -19897.266627   -19897.266625   -19897.266625  0.000062 -4.715450  0.000700
     spin moment: S , {S} =    0.00000       0.0       0.0   0.00000

SCF Convergence by DM+H criterion
max |DM_out - DM_in|         :     0.0000622298
max |H_out - H_in|      (eV) :     0.0007001046
SCF cycle converged after 16 iterations

Using DM_out to compute the final energy and forces
No. of atoms with KB's overlaping orbs in proc 0. Max # of overlaps:     221     160

siesta: E_KS(eV) =           -19897.2666

siesta: E_KS - E_eggbox =    -19897.2666
     spin moment: S , {S} =    0.00000       0.0       0.0   0.00000

siesta: Atomic forces (eV/Ang):
     1    0.431109   -0.375971   -0.332081
     2    0.180934    0.995460   -0.702767
     3    0.819956   -1.102534   -0.457150
     4   -0.424177    0.545784   -0.126669
     5   -0.413481   -1.400865    0.900618
     6   -0.536367    1.442462   -0.122488
     7    0.107969    0.477246   -0.330071
     8    0.814155   -0.210440   -0.870931
     9   -1.560218    2.063493    1.524939
    10   -0.534300   -1.440358    1.577664
    11    0.788582   -0.167249   -0.714843
    12    0.652940   -0.088638   -0.723149
    13   -0.207088   -1.285448    0.348356
    14   -0.599233    1.608308    0.366676
    15   -0.055100   -0.412823    0.655518
    16   -0.228251   -1.139458    1.463212
    17   -1.735544    0.438960    0.315609
    18    0.489328    1.968210   -0.913940
    19    0.789337    0.391747   -2.119071
    20    2.218170   -0.849126   -0.910968
    21   -0.179266   -1.650122    0.567610
    22    0.006599    1.934463   -0.522046
    23   -0.183528   -1.558527    0.502533
    24   -0.652992    1.679688    0.145999
    25    2.047441   -0.589374    1.135580
    26   -0.181510    1.928302   -0.688280
    27   -1.856777   -1.170576   -0.319808
    28    1.615273   -1.117879   -1.374544
    29   -1.000088   -1.841743   -0.903173
    30    0.955152    2.255986    0.590776
    31    0.723505   -1.328555   -1.322591
    32   -1.744788   -0.997452    0.980013
    33    1.657533   -0.090843    1.686095
    34   -2.109890    1.111007    0.921201
    35    1.625479   -1.196741   -1.278627
    36   -0.770983   -2.102114    0.683832
    37   -1.348892    1.162476   -0.858226
    38    1.478358   -0.559503    1.650629
    39   -0.141594    2.115794   -0.157571
    40    4.527303    2.486984   -6.548790
    41   -1.936125   -0.647096   -0.762317
    42    1.941430    0.706259    0.699111
    43   -1.408935   -0.838810    1.240812
    44   -1.657998    1.451004    1.109414
    45    1.356842    0.821141   -1.811333
    46    1.368987   -1.676480   -1.277474
    47    1.812148   -0.493138   -0.438039
    48    1.221898   -1.286852    0.608088
    49   -1.737270   -0.533297    0.060329
    50   -0.634576   -0.376741    1.785368
    51   -0.177703    1.943207    0.780318
    52   -1.865116   -0.986181    0.182955
    53    0.083856    2.205660   -0.477990
    54    0.031959   -2.286052    0.635453
    55   -1.618683   -1.057160    0.011911
    56   -0.224576    1.946416   -0.830689
    57    0.300581   -1.907967    0.540568
    58   -0.238436    1.721041   -0.803755
    59    1.476991   -0.950221   -0.989349
    60    0.292793    0.199038    1.828022
    61   -0.213117    1.741444   -0.778082
    62    0.544404    0.141033    1.697601
    63   -1.690440   -1.007492   -0.179505
    64    1.700476    0.766521   -0.738472
    65   -0.771330    1.132809    1.415919
    66   -1.679171   -0.765427    0.600489
    67    0.668015   -1.212899   -1.433850
    68   -0.627473    1.166528    1.491658
    69    0.774284   -1.227429   -1.297254
    70    1.339093    0.319225    1.413189
    71   -0.527696    1.512842   -0.823906
    72    0.535203   -1.329751   -1.374872
    73   -0.123621    1.629604   -0.667609
    74   -1.652330   -0.649510    0.784117
    75    0.526545    0.388812   -2.022675
    76    1.101884   -1.422335    0.836179
    77   -0.583646   -0.388865    1.870295
    78   -1.237506    1.336666   -0.834067
    79   -0.008614    1.592900    1.012413
    80    0.483849    0.429262   -1.800790
    81   -0.606422   -0.586663    1.791978
    82    1.733600    0.790938    0.185492
    83    0.086341   -1.550281   -1.102841
    84    0.357975    0.500146   -1.854650
    85   -1.766206    0.574414    0.337116
    86    1.799422   -0.552522   -0.496015
    87   -1.272424   -0.988067   -1.024045
    88   -0.201446   -0.308158    1.969041
    89   -0.490636   -2.374029    1.292642
    90    1.558773   -1.284629    0.120758
    91    0.246279    1.778796    0.532520
    92   -1.664279    0.990281   -0.060549
    93   -0.415234   -1.829836   -0.526802
    94    0.446917    1.727980    0.666170
    95   -0.568368    0.139707   -1.767601
    96    1.561943   -1.064275    0.085508
    97    1.323528   -1.290850   -0.746161
    98    0.681086    1.588900   -1.022074
    99   -0.145583   -2.418971    0.792236
   100   -0.794852   -0.253399    0.647978
   101    0.963749    1.000546   -1.128469
   102   -1.124655    0.079964    1.225922
   103    0.373815    1.358666   -1.067885
   104   -2.110702   -1.573402    1.922249
   105    0.508944   -0.737258   -0.425853
   106    0.708472    1.483818   -1.410329
   107    0.549786   -2.714748   -0.875084
   108   -0.771064   -0.678060    2.470746
   109   -0.056151    0.457531    0.114513
   110    0.295416   -2.155157    0.405813
   111    0.895540   -0.984354   -1.195569
   112    1.637537    1.396991    0.403189
   113   -0.455122    2.460921   -0.200074
   114   -2.262545   -0.352164    0.649902
   115    0.560813   -1.139940   -1.553729
   116   -0.658528    1.227032    1.773558
   117   -0.652531    1.687410    1.242544
   118   -0.122143   -1.163926    0.797184
   119    0.324565    0.819191   -0.720092
   120    0.313772    1.120966   -0.443216
   121   -0.027036    0.238124    2.407353
   122   -1.673100   -1.733892    0.467973
   123    0.849655   -0.159145   -1.063600
   124    0.951095    0.491402   -0.985517
   125   -1.735646    0.397240    1.291443
   126    0.898860    0.030056   -0.841501
   127   -1.417021   -1.347756   -1.056632
   128    1.393084    1.952652    0.862225
   129    1.317622   -0.207654    1.658220
   130    0.849309   -1.587967   -1.421001
   131   -1.896869    1.355883    0.034152
   132   -0.536949   -1.675148    0.902994
   133   -1.303979   -0.738126    0.979087
   134   -0.801866    1.006766   -1.512398
   135    0.943340    1.310911    1.073443
   136   -0.878989   -1.416820   -0.863275
   137    0.926598   -0.882043    1.378732
   138    1.035639    1.632248    0.781571
   139   -0.876375    1.022769   -1.605127
   140   -1.919797   -0.387796    1.720718
   141   -1.196661    0.859022    2.270485
   142   -0.725731    1.502010    1.354877
   143    0.715339   -1.153276   -1.458905
   144   -1.461255    0.873384   -0.598701
   145   -0.295125   -1.006198    1.532072
   146    0.776078   -0.966005   -1.500949
   147   -0.622499   -1.229634    1.367624
   148    0.444414    1.254651   -1.517767
   149    1.463431   -1.014574    0.417263
   150   -1.883260    1.076097   -0.615506
   151    1.279660    1.246595    0.483076
   152   -0.296659   -1.194560    1.490625
   153    0.253882   -2.360612   -0.106275
   154    0.890892   -0.857296   -2.218363
   155    0.597074    1.709739   -1.711337
   156   -1.481998    0.307370   -1.398753
   157    1.480279   -0.839033   -1.012150
   158    0.141135    1.363798   -1.508981
   159    1.895870   -0.190725    0.819351
   160    1.694657    0.718348   -1.564671
   161    1.832330    0.089057   -0.456931
   162   -0.708605    1.528309    1.392245
   163   -1.877839   -0.213921    0.426205
   164    0.598649   -1.312975   -1.201132
   165   -1.081072    0.115963   -1.540853
   166    1.164436   -0.115446    1.587603
   167   -1.773173   -0.385792    0.522303
   168    0.198606    1.773649   -0.876419
   169    0.325641   -1.413209   -1.183760
   170    1.182723   -0.323996    1.643300
   171   -1.286314    0.414100   -1.452893
   172    1.751757    0.034774   -0.708172
   173   -0.207439    1.450454    1.383637
   174    1.345237   -0.354168    1.218278
   175   -0.443622   -0.917102    0.851152
   176   -0.752716    0.089459   -1.367089
   177    0.493766    1.344663   -1.316842
   178   -0.579795    0.798714   -1.277971
   179    0.368701   -0.905048    1.264668
   180    1.136707   -0.501947    1.357574
   181   -0.254737    1.032089   -1.445432
   182   -1.602314   -0.577130   -0.328561
   183   -1.462217   -0.720909   -0.139695
   184    0.270569   -0.932976    1.328856
   185    0.104056    0.593849   -0.682077
   186    0.197879   -0.520549    0.984545
   187   -1.141552    1.445267   -2.466859
   188   -0.464201    0.382239   -0.779457
   189   -1.577025   -1.096628    0.292348
   190    0.825392   -0.243598   -1.891756
   191   -0.404601    2.048273    0.026747
   192   -0.915000   -1.864060    1.629692
   193    1.457348   -0.900741    2.005850
   194    0.301780   -1.499910    1.960769
   195    1.981590    0.032912    1.233699
   196    1.746160    1.458128   -0.621090
   197   -0.257416    1.498284   -1.947147
   198    0.813560   -1.427838    0.816832
   199    0.082369    0.266647    1.320527
   200   -0.479368    1.447678    0.170183
   201   -0.215303   -0.205264   -1.856218
   202   -0.562266    0.753019   -1.310180
   203    0.499858   -0.564813    1.463276
   204    0.781776   -1.283152    1.053868
   205   -0.509514    0.460519   -1.660311
   206   -0.639007    1.558640    0.535450
   207   -0.528876    1.392731    0.731041
   208    0.492487   -0.488931    1.424700
   209   -0.178728    0.022818   -0.838465
   210    0.022160   -0.266902    0.444982
   211   -1.135508    1.501312   -2.427689
   212   -0.403635    0.549691   -0.636381
   213   -0.444662    1.400800    1.276795
   214   -1.650116   -0.719137   -1.040296
   215    1.220035    0.651459   -1.552202
   216    0.187730    0.552607    2.568065
   217    1.100026   -1.689877    1.703593
   218    0.699101   -0.621725    2.312455
   219    1.050591   -2.034275    0.429447
   220    0.389918   -1.487711   -1.774417
   221   -0.681447    0.583015   -2.307193
----------------------------------------
   Tot    3.373275    0.303442   -4.207643
----------------------------------------
   Max    6.548790
   Res    1.203065    sqrt( Sum f_i^2 / 3N )
----------------------------------------
   Max    6.548790    constrained

Stress tensor Voigt[x,y,z,yz,xz,xy] (kbar):       -4.73       -5.71       -6.48        0.95        0.85        0.49
(Free)E + p*V (eV/cell)   -19784.9765
Target enthalpy (eV/cell)   -19897.2666

siesta: Stress tensor (static) (eV/Ang**3):
        -0.002770    0.000320    0.000544
         0.000320   -0.003377    0.000612
         0.000544    0.000612   -0.003882

siesta: Pressure (static):          5.35626090  kBar

siesta: Stress tensor (total) (eV/Ang**3):
        -0.002951    0.000307    0.000530
         0.000307   -0.003566    0.000590
         0.000530    0.000590   -0.004043

siesta: Pressure (total):          5.63984538  kBar

mulliken: Atomic and Orbital Populations:

mulliken: Spin UP 

Species: C                   
Atom  Qatom  Qorb
               2s      2py     2pz     2px     3Pdxy   3Pdyz   3Pdz2   3Pdxz   
               3Pdx2-y2
   1  1.997   0.459   0.516   0.501   0.500   0.006   0.005   0.006   0.001
              0.005
   2  2.013   0.455   0.517   0.507   0.505   0.008   0.008   0.007   0.001
              0.004
   3  2.058   0.476   0.527   0.516   0.518   0.006   0.001   0.007   0.004
              0.004
   4  2.013   0.471   0.507   0.503   0.501   0.008   0.008   0.008   0.002
              0.005
   5  2.056   0.477   0.521   0.520   0.518   0.003   0.007   0.001   0.003
              0.006
   6  2.013   0.464   0.515   0.503   0.503   0.007   0.007   0.007   0.001
              0.006
   7  1.995   0.453   0.513   0.508   0.500   0.005   0.005   0.007   0.000
              0.004
   8  1.967   0.432   0.499   0.496   0.482   0.008   0.009   0.012   0.014
              0.015
  10  1.951   0.467   0.460   0.488   0.483   0.014   0.020   0.006   0.006
              0.007
  11  2.016   0.460   0.514   0.506   0.508   0.006   0.006   0.006   0.001
              0.008
  12  2.013   0.463   0.518   0.499   0.503   0.006   0.007   0.008   0.001
              0.008
  13  2.017   0.458   0.520   0.505   0.505   0.010   0.007   0.006   0.000
              0.005
  14  2.057   0.474   0.531   0.519   0.511   0.004   0.002   0.007   0.003
              0.005
  15  2.004   0.471   0.512   0.507   0.488   0.003   0.009   0.005   0.004
              0.006
  16  1.989   0.468   0.511   0.506   0.481   0.002   0.010   0.006  -0.000
              0.005
  17  2.082   0.488   0.502   0.512   0.547   0.007   0.004   0.009   0.004
              0.009
  18  2.122   0.496   0.535   0.510   0.561   0.004   0.005   0.007   0.001
              0.004
  19  2.070   0.491   0.506   0.538   0.508   0.007   0.006   0.004   0.004
              0.006
  20  2.140   0.493   0.554   0.519   0.547   0.008   0.002   0.009   0.005
              0.002
  21  2.054   0.480   0.545   0.502   0.508   0.006   0.004   0.006  -0.000
              0.004
  22  2.011   0.461   0.511   0.503   0.508   0.006   0.007  -0.001   0.003
              0.011
  23  1.952   0.443   0.487   0.491   0.454   0.008   0.015   0.014   0.012
              0.028
  24  2.063   0.467   0.539   0.519   0.518   0.006   0.004   0.005   0.001
              0.005
  25  2.141   0.496   0.556   0.521   0.542   0.005   0.006   0.009   0.002
              0.005
  26  2.077   0.490   0.546   0.503   0.509   0.008   0.004   0.009   0.004
              0.005
  27  2.204   0.514   0.559   0.570   0.545   0.005   0.002   0.006   0.000
              0.003
  28  2.204   0.516   0.561   0.561   0.550   0.005   0.002   0.004   0.003
              0.003
  29  2.150   0.498   0.527   0.541   0.555   0.003   0.006   0.004   0.009
              0.008
  30  2.128   0.502   0.532   0.531   0.544   0.002   0.005   0.001   0.006
              0.005
  31  2.079   0.490   0.519   0.529   0.512   0.005   0.008   0.002   0.009
              0.006
  32  2.206   0.515   0.564   0.563   0.546   0.005   0.005   0.001   0.005
              0.001
  33  2.205   0.516   0.571   0.551   0.550  -0.000   0.005   0.000   0.007
              0.005
  34  2.132   0.497   0.535   0.554   0.525   0.004   0.005   0.005   0.002
              0.005
  35  2.137   0.498   0.536   0.551   0.530   0.004   0.006   0.006   0.001
              0.005
  36  2.140   0.497   0.544   0.562   0.515   0.006   0.005   0.005   0.002
              0.004
  37  2.214   0.515   0.557   0.565   0.557   0.006   0.006   0.004   0.002
              0.001
[...]
   43.9056   43.9433   43.9798   44.1139   44.1814   44.1822   44.2334   44.3442   44.3916   44.4644
   44.5085   44.5990   44.6239   44.6622   44.6634   44.7830   44.8177   44.8505   44.8861   44.9496
   45.0214   45.0631   45.4063   45.4252   45.4480   45.5319   45.6689   45.8939   45.9495   46.0188
   46.0446   46.0474   46.0910   46.1532   46.4607   46.5491   46.7012   46.7928   46.8215   46.8425
   46.9760   47.0554   47.1387   47.2175   47.3370   47.3818   47.4095   47.5955   47.6435   47.6790
   47.7526   47.8245   47.8312   47.9854   48.1707   48.2855   48.3456   48.5154   48.5322   48.5666
   48.7344   48.7765   48.8435   48.9482   49.1978   49.2386   49.3467   49.4383   49.5792   49.6522
   49.7570   49.8216   49.9486   50.0222   50.0980   50.1566   50.3139   50.6642   50.7636   50.8412
   50.8734   50.9207   51.2344   51.4657   51.5051   51.6152   51.6621   51.8527   52.0145   52.2075
   52.2537   52.2711   52.3053   52.7657   52.8074   52.9120   52.9395   53.2416   53.3449   53.5017
   53.6487   53.9625   54.2161   54.2857   54.2865   54.3310   54.6038   54.6392   54.8917   54.9463
   55.1072   55.2000   55.4680   55.7361   55.9081   55.9289   55.9795   56.1452   56.1851   56.4989
   56.5856   56.6250   56.6515   56.8023   57.0976   57.3990   57.4427   57.7739   57.8705   57.9085
   58.0778   58.5450   58.7067   58.8762   59.0186   59.3743   59.5686   59.7175   59.7243   59.8626
   59.9855   60.0477   60.1004   60.1161   60.4414   60.5602   60.8199   60.9518   61.0362   61.1841
   61.4065   61.8649   61.9876   62.1523   62.2397   62.4569   62.9325   63.1166   63.3853   63.9307
   64.0096   64.1763   64.3529   64.5132   64.8667   64.9637   65.2545   65.3159   65.3402   65.5476
   65.7270   65.8757   66.0548   66.1679   66.2221   66.3293   66.4993   66.7314   66.7654   66.8774
   67.1258   67.2688   67.5965   67.6264   67.6749   67.8480   68.0650   68.4033   68.4923   68.6899
   68.6913   68.7868   68.8816   69.0416   69.1073   69.3267   69.4579   69.4677   69.9330   69.9973
   70.2024   70.2722   70.5472   70.6224   70.7415   71.3882   71.5738   71.8298   71.9155   72.2293
   72.5498   72.7664   72.7767   72.8922   73.0911   73.4188   73.7506   73.9246   73.9262   73.9597
   74.5192   74.9513   75.7288   76.2148   76.4657   76.7822   77.4315   77.9406   78.2463   78.3592
   78.8211   79.5352   79.7894   80.5278   82.8426   83.8699   84.0333   84.1542   85.1203   86.0685
   86.2407   87.9837   88.2457   88.7211   89.9427   90.3018   92.3949   92.7526   95.1179   96.2987
   97.1680   98.0509   99.0025  102.6944

siesta: PDOS info
siesta: E1 -- E2, sigma [eV], nhist:  -10.000 --   10.000    0.200 500

siesta: Program's energy decomposition (eV):
siesta: Ebs     =     -7035.078797
siesta: Eions   =     30723.207636
siesta: Ena     =      6394.715988
siesta: Ekin    =     12945.720939
siesta: Enl     =     -1744.720378
siesta: Eso     =         0.000000
siesta: Edftu   =         0.000000
siesta: DEna    =       113.847990
siesta: DUscf   =        26.419293
siesta: DUext   =         0.000000
siesta: Exc     =     -6914.034824
siesta: eta*DQ  =         0.000000
siesta: Emadel  =         0.000000
siesta: Emeta   =         0.000000
siesta: Emolmec =         0.000000
siesta: Ekinion =        10.769367
siesta: Eharris =    -19890.489262
siesta: Etot    =    -19890.489261
siesta: FreeEng =    -19890.489261

siesta: Final energy (eV):
siesta:  Band Struct. =   -7035.078797
siesta:       Kinetic =   12945.720939
siesta:       Hartree =   96961.518294
siesta:       Edftu   =       0.000000
siesta:       Eso     =       0.000000
siesta:    Ext. field =       0.000000
siesta:   Exch.-corr. =   -6914.034824
siesta:  Ion-electron = -205891.806491
siesta:       Ion-ion =   82997.343454
siesta:       Ekinion =      10.769367
siesta:         Total =  -19890.489261
siesta:         Fermi =      -4.819838

siesta: Atomic forces (eV/Ang):
siesta:      1   -0.703675    2.436627    0.006421
siesta:      2   -0.091411   -0.732195    0.704494
siesta:      3    0.313846    0.921151   -0.258156
siesta:      4    0.648392   -0.366845   -1.338512
siesta:      5   -0.126252    0.074248    0.595773
siesta:      6    1.810808   -0.928312   -2.235467
siesta:      7    0.227007   -1.578716   -0.024737
siesta:      8   -0.528127    0.340737    1.723832
siesta:      9   -0.410278   -0.526453    1.015136
siesta:     10   -0.381291    0.684502   -1.033281
siesta:     11   -0.651689    0.332540    0.771096
siesta:     12   -0.752149    1.070288   -0.400854
siesta:     13    0.522275   -0.747121   -0.656929
siesta:     14   -0.388630    0.609491    1.064493
siesta:     15    0.230581    0.080541   -0.743146
siesta:     16   -0.020796    0.039411   -0.449921
siesta:     17    0.799368    0.012239    0.707965
siesta:     18    0.270377   -0.677592   -0.870516
siesta:     19    0.542637   -0.867039    0.330373
siesta:     20    0.174894   -0.314017    0.412298
siesta:     21   -0.154579    0.665043    0.564502
siesta:     22   -0.905664   -0.826482   -0.308595
siesta:     23    0.175744    1.173292   -0.374071
siesta:     24    1.471293   -1.581591   -0.546684
siesta:     25    1.116958    0.127932    0.425150
siesta:     26   -0.426375    1.237432   -1.397260
siesta:     27    0.068183    0.103418    0.005116
siesta:     28   -0.312002   -0.487171   -1.345484
siesta:     29   -2.119151   -1.450085    0.413442
siesta:     30   -1.058657   -0.471003    0.390948
siesta:     31   -0.944937   -0.761104    0.710156
siesta:     32    0.136550    0.838583   -0.054503
siesta:     33   -0.796207    0.755198   -0.774235
siesta:     34   -0.795042    0.276928    0.231130
siesta:     35   -0.624823   -0.817430   -0.024036
siesta:     36   -0.875965    1.247954   -1.763797
siesta:     37    1.521746   -1.450848   -2.074198
siesta:     38   -0.155696   -0.362946    0.617955
siesta:     39   -0.249322    0.943435    0.835058
siesta:     40   -4.043518    2.041443    3.951325
siesta:     41    2.135584    1.580801   -0.183547
siesta:     42    0.450256   -0.896058   -1.150581
siesta:     43   -0.526086   -0.443497   -0.064514
siesta:     44   -0.462489    0.261549    0.244290
siesta:     45   -0.468727    0.588612    0.070526
siesta:     46    0.402395   -0.166086   -0.290599
siesta:     47   -0.465733    0.297809    0.064482
siesta:     48   -0.479889    0.953403    0.320955
siesta:     49   -0.098282    0.225197   -0.017949
siesta:     50    0.110548   -0.006595    0.022890
siesta:     51   -0.055006   -0.017126   -0.338616
siesta:     52    0.349361    0.051788    0.011437
siesta:     53   -0.079929   -0.511878    0.162588
siesta:     54   -0.101715   -0.377988    0.257298
siesta:     55   -0.399790   -0.054348   -0.062523
siesta:     56    0.051641   -0.532426    0.475421
siesta:     57   -0.250419    1.076426   -0.264540
siesta:     58   -0.904438   -0.427719   -0.115326
siesta:     59    0.114279   -0.665715   -0.178145
siesta:     60    0.520091    0.150089    0.800067
siesta:     61    0.842512   -0.801897    0.060542
siesta:     62    0.032855    0.241518    1.194719
siesta:     63   -0.034076   -0.215443    0.283637
siesta:     64    0.588742    0.387132   -0.337797
siesta:     65    0.339266    0.306037   -0.002876
siesta:     66    1.821027    0.556946   -0.160906
siesta:     67    0.103298    0.648666    0.407962
siesta:     68    0.115482   -0.225510   -0.337712
siesta:     69    0.321024   -0.191699   -0.207707
siesta:     70   -0.523646   -0.189230   -0.680952
siesta:     71    0.517358   -0.260758    0.425406
siesta:     72   -0.227998    0.350329    0.277100
siesta:     73    0.361018   -1.460021    0.978524
siesta:     74    1.217799    0.232127   -0.326998
siesta:     75    0.178006   -0.114286   -0.085035
siesta:     76   -0.377458    0.454826   -0.300702
siesta:     77    0.224891    0.196272   -0.170685
siesta:     78   -0.067639   -0.290092    0.087438
siesta:     79   -0.258779    0.871430    0.216059
siesta:     80    0.539804   -0.634814    1.386731
siesta:     81   -0.164020   -0.290500    0.754649
siesta:     82   -0.606750   -0.647495    0.053235
siesta:     83    0.048389    1.188619    1.115891
siesta:     84    0.062875    0.250885   -0.622470
siesta:     85   -0.272973    0.054330   -0.052484
siesta:     86    0.081016   -0.231006   -0.066064
siesta:     87    0.024245   -0.301707   -0.085455
siesta:     88    0.197176    0.096755   -0.558048
siesta:     89    0.225447   -1.480630    0.350715
siesta:     90   -0.518160    0.266561   -0.205178
siesta:     91    0.200389   -0.977427   -0.021930
siesta:     92    0.193790   -0.557320   -0.279444
siesta:     93   -0.300124    1.037528    0.806503
siesta:     94   -0.232943   -0.041105   -0.420520
siesta:     95    0.773694    0.376334    1.011237
siesta:     96   -0.952685    0.090319    0.091139
siesta:     97    1.186545    0.072163   -0.041444
siesta:     98   -0.633248   -0.930751    1.607414
siesta:     99   -0.279810    0.786562    1.028466
siesta:    100    1.322075    0.478782   -0.979037
siesta:    101   -0.592513    0.716518    0.406061
siesta:    102   -0.362045    0.127821    0.611773
siesta:    103    0.964837    0.881340   -1.550010
siesta:    104   -0.850901   -0.825841    0.884546
siesta:    105   -0.395490    0.441173    0.150844
siesta:    106   -0.485201   -1.732817    0.605294
siesta:    107   -0.310927    1.111679    0.204764
siesta:    108   -0.411387   -0.624454   -0.547879
siesta:    109    0.172783   -0.179321    1.075621
siesta:    110   -0.507616    1.423324   -0.142329
siesta:    111    0.772449    0.627247    0.627390
siesta:    112   -0.398644   -0.764422    0.643401
siesta:    113    0.550971   -0.702313   -0.594682
siesta:    114   -0.737590    0.710864   -1.153880
siesta:    115    1.059907   -0.815713    1.010609
siesta:    116    0.450641   -1.306425   -1.305530
siesta:    117    0.472466   -1.615122    0.919436
siesta:    118   -0.200999    0.205540   -0.060480
siesta:    119   -0.015092    0.643491   -0.318232
siesta:    120    1.222923    0.102724   -0.734486
siesta:    121   -0.780816   -2.301987   -0.656053
siesta:    122    0.022394    1.734673   -0.875427
siesta:    123   -0.161225    1.088028    1.040256
siesta:    124   -0.626016   -1.401002   -0.190147
siesta:    125    0.414577    0.453943   -0.207804
siesta:    126   -0.395997    0.169872    0.092921
siesta:    127   -0.691449   -1.061667    0.884670
siesta:    128   -0.131414    0.147986   -0.893230
siesta:    129   -1.500020    0.373758   -0.849433
siesta:    130   -0.123947    0.686972    0.780323
siesta:    131    0.663148   -1.827862   -0.130086
siesta:    132    0.467346    0.600324    0.250504
siesta:    133   -0.054204    0.333441   -0.660035
siesta:    134   -0.026729   -0.721764    0.543335
siesta:    135    0.007782   -0.400752   -0.217569
siesta:    136   -0.267759   -0.025849   -0.369836
siesta:    137   -0.298473    1.124148   -1.022656
siesta:    138    0.215995   -0.308029   -0.274583
siesta:    139    0.148567   -0.218842   -0.522239
siesta:    140    0.259602   -0.024448   -0.332940
siesta:    141    0.634777   -0.374878   -0.745654
siesta:    142   -0.326250   -0.457955   -0.182957
siesta:    143    0.206348    0.113426    0.138146
siesta:    144    0.671914   -0.070513    0.653018
siesta:    145   -0.029271    0.772133   -1.016623
siesta:    146   -0.966390    0.161575    1.148706
siesta:    147    0.181772   -0.386389   -0.454433
siesta:    148   -0.367736    0.036343    0.353442
siesta:    149    0.077004   -0.446904    0.017387
siesta:    150   -0.144862    0.215152   -0.200638
siesta:    151   -0.519415    0.178558   -0.009324
siesta:    152   -0.341509    0.658898   -0.600783
siesta:    153    0.078774    1.479736   -0.109597
siesta:    154   -0.232784    0.069384   -0.321276
siesta:    155    0.032838    0.206399    0.095516
siesta:    156    0.438009   -0.130372   -0.093650
siesta:    157   -0.830922    0.529854    0.289204
siesta:    158    0.718156   -0.790912    0.606738
siesta:    159    0.348441    0.248660    0.117537
siesta:    160    0.070218    0.698980   -0.254440
siesta:    161    0.216668    0.423165    0.321252
siesta:    162    0.490640   -0.799210   -0.050270
siesta:    163    0.505841   -0.393689   -0.152901
siesta:    164   -0.601015   -0.178055    0.331181
siesta:    165    1.206558   -0.272852    0.508231
siesta:    166   -0.493954    0.343509   -0.220462
siesta:    167    0.803224   -0.063316    0.151621
siesta:    168    0.099694   -0.211924    0.063253
siesta:    169    0.043215    0.930030    0.920917
siesta:    170   -0.894304    0.440475   -1.169092
siesta:    171    0.264019   -0.187222    0.088175
siesta:    172   -0.671329    0.245102    0.112762
siesta:    173    0.085524   -0.384780   -0.211926
siesta:    174   -1.030481    1.257978   -0.310833
siesta:    175   -0.929756    0.166735   -0.634186
siesta:    176    0.135333   -1.198619    2.012122
siesta:    177    1.292949   -0.014691   -0.308899
siesta:    178   -2.286453   -1.484875    0.512793
siesta:    179   -0.275443    0.051659    0.086974
siesta:    180   -0.051386    0.842543   -0.942187
siesta:    181    1.332256   -0.029970    0.252656
siesta:    182   -1.129850    1.175928   -1.137597
siesta:    183    0.493412   -0.682936    0.423291
siesta:    184   -0.343536    0.689053   -0.769499
siesta:    185    0.019622   -0.161568   -0.059472
siesta:    186    1.313188    0.597524    0.384408
siesta:    187   -0.672600    0.981702   -1.104974
siesta:    188    1.255956   -0.294957    0.722679
siesta:    189    0.323284    0.451809   -0.071870
siesta:    190    0.160593   -0.020377   -0.174332
siesta:    191    0.281162   -1.385056    0.025066
siesta:    192    0.309067    0.623976    0.140858
siesta:    193   -0.030226   -0.164161    0.094198
siesta:    194   -0.140667   -0.599842    0.920812
siesta:    195    0.678592   -0.112873    0.059552
siesta:    196   -0.267598   -0.015546    0.288252
siesta:    197    0.128437   -0.771262    0.804639
siesta:    198    0.732210   -0.987229   -1.642787
siesta:    199    0.216791    0.978698    1.393659
siesta:    200    0.294517   -1.288610    0.836088
siesta:    201    0.216010   -0.176935   -0.523765
siesta:    202   -0.666458    1.816603    0.422122
siesta:    203    0.229058   -0.769248   -1.028878
siesta:    204   -0.681870    1.178893    0.961061
siesta:    205    0.312141   -0.263084   -0.742070
siesta:    206    0.729678   -0.724199   -0.195464
siesta:    207    0.660810   -0.361861    0.841175
siesta:    208   -0.316994   -0.962782   -2.422989
siesta:    209    0.203821    0.201594   -0.151355
siesta:    210    0.547865   -1.000461    2.724718
siesta:    211   -0.971622    0.946854   -1.788538
siesta:    212    0.127674    0.005844    0.802063
siesta:    213   -0.171043    0.364804    0.532378
siesta:    214    0.029349    0.151569    0.307771
siesta:    215   -0.330283   -0.199083    0.712937
siesta:    216    0.174627   -0.209180   -0.794624
siesta:    217   -0.399438    0.195389   -0.150373
siesta:    218    0.108203   -0.227718    0.566691
siesta:    219   -0.631255    0.500269    0.128510
siesta:    220   -0.181658    0.121559    0.070852
siesta:    221    0.014492    0.353202    0.631721
siesta: ----------------------------------------
siesta:    Tot   -2.469201    0.249855    4.710430

siesta: Stress tensor (static) (eV/Ang**3):
siesta:     0.000577   -0.000228    0.000267
siesta:    -0.000228    0.000544    0.000014
siesta:     0.000267    0.000014    0.000264

siesta: Cell volume =      31899.902630 Ang**3

siesta: Pressure (static):
siesta:                Solid            Molecule  Units
siesta:          -0.00000503          0.00000234  Ry/Bohr**3
siesta:          -0.00046170          0.00021461  eV/Ang**3
siesta:          -0.73973019          0.34385225  kBar
(Free)E+ p_basis*V_orbitals  =      -19855.385492
(Free)Eharris+ p_basis*V_orbitals  =      -19855.385493
     spin moment: S , {S} =    0.00000       0.0       0.0   0.00000

siesta: Electric dipole (a.u.)  =    0.218467    1.201846   -2.092651
siesta: Electric dipole (Debye) =    0.555288    3.054791   -5.318993

cite: Please see "siesta.bib" for an exhaustive BiBTeX file.
cite: This calculation has made use of the following articles.
cite: Articles are encouraged to be cited in a published work.
        Primary SIESTA paper
          DOI: www.doi.org/10.1088/0953-8984/14/11/302


timer: Elapsed wall time (sec) =    3691.044
timer: CPU execution times (sec):

Routine            Calls   Time/call    Tot.time        %
siesta                 1    3689.966    3689.966   100.00
Setup                  1       0.362       0.362     0.01
bands                  3     222.272     666.815    18.07
KSV_init               1       0.000       0.000     0.00
IterGeom              10     190.511    1905.107    51.63
state_init            10       0.395       3.950     0.11
hsparse               10       0.040       0.396     0.01
overlap               10       0.280       2.797     0.08
Setup_H0              10       7.766      77.660     2.10
naefs                 20       0.002       0.039     0.00
MolMec                20       0.000       0.000     0.00
kinefsm               20       0.199       3.981     0.11
nlefsm                20       1.372      27.432     0.74
DHSCF_Init            10       5.428      54.281     1.47
DHSCF1                10       0.033       0.335     0.01
INITMESH              10       0.000       0.000     0.00
DHSCF2                10       5.395      53.945     1.46
REMESH                10       0.557       5.567     0.15
REORD                626       0.015       9.322     0.25
PHION                 10       3.400      33.999     0.92
COMM_BSC             934       0.012      11.373     0.31
POISON               122       0.825     100.675     2.73
fft                  244       0.332      81.105     2.20
IterSCF               91      18.762    1707.343    46.27
setup_H              101       4.209     425.133    11.52
DHSCF                112       4.764     533.523    14.46
DHSCF3               112       4.187     468.928    12.71
rhoofd               112       1.108     124.122     3.36
XC                   112       0.821      91.947     2.49
GXC-CellXC           112       0.674      75.486     2.05
cellXC               112       0.674      75.484     2.05
vmat                 111       0.964     107.054     2.90
compute_dm            91      14.069    1280.276    34.70
diagon                91      14.066    1279.972    34.69
r-eigvec             182       6.525    1187.638    32.19
r-buildHS            182       0.004       0.800     0.02
rdiag                184       6.520    1199.641    32.51
rdiag1               184       0.219      40.234     1.09
rdiag2               184       0.397      73.001     1.98
rdiag3               184       3.871     712.225    19.30
rdiag4               184       2.026     372.768    10.10
r-buildD              91       0.988      89.895     2.44
MIXER                 81       0.011       0.865     0.02
PostSCF               10      11.600     116.005     3.14
DHSCF4                10       6.459      64.594     1.75
dfscf                 10       5.637      56.366     1.53
overfsm               10       0.116       1.155     0.03
state_analysis        10       0.008       0.079     0.00
siesta_move           10       0.005       0.049     0.00
Analysis               1    1784.488    1784.488    48.36
c-eigval             152       4.385     666.554    18.06
c-buildHS            152       0.015       2.222     0.06
cdiag                152       4.371     664.331    18.00
cdiag1               152       0.777     118.048     3.20
cdiag2               152       1.315     199.949     5.42
cdiag3               152       2.278     346.330     9.39
pdos                   1    1114.130    1114.130    30.19
optical                1       0.000       0.000     0.00
  

>> End of run:  15-DEC-2020  13:49:47
Job completed
