Siesta Version  : master-post-4.1-266
Architecture    : unknown
Compiler version: GNU Fortran (Ubuntu 9.3.0-17ubuntu1~20.04) 9.3.0
Compiler flags  : gfortran -O2 -fPIC -ftree-vectorize
PP flags        : -DFC_HAVE_ABORT -DSIESTA__DIAG_2STAGE -DSIESTA__MRRR
Libraries       : libsiestaLAPACK.a libsiestaBLAS.a
Directory       : /home/colinw/siesta/mixture_simulations/boundedfattyacidlaPAH1laPAH2
SERIAL version

* Running in serial mode
>> Start of run:  15-DEC-2020  13:52:34

                           ***********************       
                           *  WELCOME TO SIESTA  *       
                           ***********************       

reinit: Reading from standard input
reinit: Dumped input in INPUT_TMP.22622
************************** Dump of input data file ****************************
NumberOfAtoms 160
SpinPolarized yes
#FixSpin .true.
#TotalSpin
NumberOfSpecies 4
MD.TypeOfRun  nose
MD.FinalTimeStep 10
MD.LengthTimeStep 1.0  fs
MD.InitialTemperature 300 K
MD.TargetTemperature  300  K
%block ChemicalSpeciesLabel
1  6  C
2  8  O
3  1  H
4  7  N
%endblock ChemicalSpeciesLabel
PAO.BasisSize szp
 PAO.EnergyShift 0.02 Ry
MeshCutoff          100 Ry
MaxSCFIterations    100
DM.NumberPulay       3
DM.Tolerance         1e-3
WriteDenchar	.true.
%block ProjectedDensityOfStates
-10.0 10.0 0.200 500 eV
%endblock ProjectedDensityOfStates
NetCharge 0.00
%block BandLines
1  1.000  1.000 1.000  L
20 0.00   0.00   0.00  \Gamma
25 2.00   0.000  0.00  X
30 2.00   2.00   2.00  \Gamma
%endblock BandLines
LongOutput .true.
WriteCoorXmol .true.
LatticeConstant 1 Ang
%block LatticeVectors
  34.750524 0.0 0.0
  0.0 32.490714 0.0
  0.0 0.0 37.617909
%endblock LatticeVectors
#UseSaveData .true.
%block kgrid_Monkhorst_Pack
1 0 0 0.0
 0 1 0 0.0
 0 0 1 0.0
%endblock kgrid_Monkhorst_Pack
WriteMDXmol .true.
AtomicCoordinatesFormat Ang
%block AtomicCoordinatesAndAtomicSpecies
20.604466  14.190816 5.706035  1
21.306771  13.070540 5.494953  1
22.614898  12.770565 6.214555  1
22.936115  13.137843 7.662224  1
23.042466  14.553681 7.931007  1
24.028753  15.173351 7.003402  1
23.925034  16.732455 7.266610  1
22.216541  17.348722 7.074876  1
21.080950  17.142131 8.101209  1
21.226055  17.278655 9.649315  1
22.327172  16.551884 10.483533  1
23.797101  17.075872 10.563440  1
24.607932  17.112719 9.317289  1
24.012100  18.423572 8.028564  1
24.053791  18.388624 6.141671  1
23.118713  18.902738 4.991380  1
23.564593  18.442221 3.586278  1
20.900498  12.269475 4.412797  2
21.278931  10.879310 4.342316  1
20.178291  9.957105 4.965822  1
18.829220  9.704792 4.277438  1
21.646607  10.418299 2.903256  1
22.856726  10.928424 2.241355  2
24.113794  10.568671 2.669981  1
24.349534  10.152579 3.794787  2
25.196620  10.848546 1.593699  1
26.128232  9.751629 0.974087  1
27.197638  9.012148 1.815482  1
28.028336  7.972296 1.007418  1
29.107262  7.187142 1.800098  1
28.680487  6.281338 2.961595  1
27.911356  6.852037 4.193887  1
28.154247  7.893465 5.312024  1
28.433977  9.190160 5.624469  1
28.897626  10.515124 4.997193  1
28.003925  11.819262 5.033024  1
28.752634  13.091531 4.484102  1
27.934392  14.395980 4.533438  1
28.639267  15.616775 3.897548  1
27.837053  16.930980 3.866256  1
26.609668  16.907447 2.956266  1
25.496995  15.945964 3.330059  1
20.901267  14.920433 6.428010  3
19.740761  14.480011 5.122507  3
23.398133  13.194232 5.576286  3
22.777829  11.708722 6.273464  3
23.945143  12.769103 7.891471  3
22.238873  12.718237 8.383329  3
23.294557  14.668724 8.979030  3
22.084789  15.030019 7.861303  3
23.772872  15.118148 5.942552  3
25.082024  14.887684 7.174250  3
24.992448  16.750583 6.670165  3
25.016517  17.201295 7.595091  3
21.836043  17.116966 6.085933  3
22.129271  18.535430 7.088793  3
20.712336  16.169949 7.862698  3
20.230938  17.799954 7.779568  3
20.275757  16.851987 10.007135  3
21.204341  18.331876 9.960877  3
22.239397  15.482065 10.281870  3
22.018188  16.609334 11.535920  3
24.381303  16.408501 11.226942  3
23.846247  18.103643 10.846604  3
24.551882  16.030664 9.084500  3
25.700422  17.116570 9.342859  3
24.031706  19.473078 8.417681  3
23.003632  18.124224 8.592531  3
23.796864  17.315941 5.624457  3
25.088112  18.325639 5.773047  3
23.162779  19.949707 5.150115  3
22.077000  18.545170 4.945816  3
24.518829  18.896622 3.347485  3
22.812371  18.721382 2.846052  3
23.615323  17.357366 3.477364  3
22.171962  10.705179 4.927326  3
19.958119  10.309578 5.980073  3
20.634666  8.964908 5.069714  3
18.278575  10.606804 3.999652  3
18.183324  9.149286 4.976915  3
18.931928  9.064377 3.394045  3
20.820742  10.674304 2.229953  3
21.738191  9.326980 2.904266  3
25.803290  11.685396 1.957250  3
24.643520  11.249691 0.730691  3
26.688842  10.265199 0.179100  3
25.506824  9.001516 0.473921  3
26.675300  8.500127 2.612602  3
27.897690  9.724866 2.259767  3
28.557090  8.496498 0.194491  3
27.363533  7.260459 0.499222  3
29.885328  7.864504 2.157469  3
29.610424  6.530763 1.063287  3
29.550892  5.687318 3.288651  3
28.023260  5.505464 2.520625  3
27.749940  5.920166 4.775478  3
26.898639  7.051306 3.846481  3
27.874044  7.363765 6.240483  3
28.352792  9.361093 6.708857  3
29.253243  10.345568 3.982213  3
29.783257  10.790164 5.592431  3
27.667390  12.041150 6.055640  3
27.101022  11.654250 4.432525  3
29.016195  12.906281 3.435084  3
29.676262  13.269342 5.039056  3
27.624968  14.654369 5.551769  3
27.045928  14.137816 3.987896  3
28.953289  15.388508 2.871530  3
29.552086  15.811864 4.472220  3
28.496951  17.731105 3.485708  3
27.566678  17.247532 4.881096  3
26.914820  16.707391 1.926144  3
26.199564  17.920947 2.946036  3
25.722152  14.896473 3.247928  3
24.688551  16.023891 2.602319  3
25.139821  16.127912 4.345579  3
4.105252  29.010005 26.976271  1
5.395821  28.958196 26.206161  1
5.357338  28.673191 24.838821  1
6.545925  28.637037 24.136538  1
7.753321  28.866865 24.689264  4
7.802195  29.147719 26.002325  1
9.041763  29.407375 26.571917  1
9.182202  29.718764 27.926057  1
8.060611  29.758173 28.741128  1
6.804203  29.496257 28.196028  1
6.650108  29.199526 26.820908  1
3.240597  28.845210 26.324290  3
3.978607  29.993452 27.440380  3
4.090238  28.233877 27.748124  3
4.421401  28.486625 24.323054  3
6.559948  28.420192 23.072250  3
9.925094  29.373456 25.938482  3
10.166888  29.929079 28.334873  3
8.158906  29.996178 29.797009  3
5.941755  29.531779 28.856318  3
29.397682  27.777667 1.857520  1
28.043347  27.154666 1.739735  1
26.957448  27.973169 1.776219  4
25.717318  27.447887 1.672756  1
25.439762  26.098869 1.527260  1
26.541772  25.233400 1.486657  1
26.690316  23.815654 1.352102  1
25.786326  22.742726 1.208110  1
26.279230  21.437088 1.098594  1
27.649714  21.190695 1.130561  1
28.566209  22.236434 1.271941  1
28.055211  23.535142 1.380345  1
28.709627  24.734589 1.526613  4
29.712747  24.832637 1.577662  3
27.818925  25.781212 1.593865  1
29.321937  28.864319 1.962523  3
29.991121  27.558781 0.964551  3
29.918128  27.382600 2.735341  3
24.910429  28.174828 1.711572  3
24.421839  25.738704 1.449400  3
24.716077  22.924301 1.182049  3
25.583983  20.608566 0.987568  3
28.013555  20.169273 1.043990  3
29.633088  22.040172 1.296795  3
 %endblock AtomicCoordinatesAndAtomicSpecies
************************** End of input data file *****************************

reinit: -----------------------------------------------------------------------
reinit: System Name: 
reinit: -----------------------------------------------------------------------
reinit: System Label: siesta
reinit: -----------------------------------------------------------------------

initatom: Reading input for the pseudopotentials and atomic orbitals ----------
Species number:   1 Atomic number:    6 Label: C
Species number:   2 Atomic number:    8 Label: O
Species number:   3 Atomic number:    1 Label: H
Species number:   4 Atomic number:    7 Label: N

Ground state valence configuration:   2s02  2p02
Reading pseudopotential information in formatted form from C.psf

Valence configuration for pseudopotential generation:
2s( 2.00) rc: 1.54
2p( 2.00) rc: 1.54
3d( 0.00) rc: 1.54
4f( 0.00) rc: 1.54
Ground state valence configuration:   2s02  2p04
Reading pseudopotential information in formatted form from O.psf

Valence configuration for pseudopotential generation:
2s( 2.00) rc: 1.47
2p( 4.00) rc: 1.47
3d( 0.00) rc: 1.47
4f( 0.00) rc: 1.47
Ground state valence configuration:   1s01
Reading pseudopotential information in formatted form from H.psf

Valence configuration for pseudopotential generation:
1s( 1.00) rc: 1.31
2p( 0.00) rc: 1.31
3d( 0.00) rc: 0.37
4f( 0.00) rc: 1.31
Ground state valence configuration:   2s02  2p03
Reading pseudopotential information in formatted form from N.psf

Valence configuration for pseudopotential generation:
2s( 2.00) rc: 1.48
2p( 3.00) rc: 1.48
3d( 0.00) rc: 1.48
4f( 0.00) rc: 1.48
For C, standard SIESTA heuristics set lmxkb to 3
 (one more than the basis l, including polarization orbitals).
Use PS.lmax or PS.KBprojectors blocks to override.
For O, standard SIESTA heuristics set lmxkb to 3
 (one more than the basis l, including polarization orbitals).
Use PS.lmax or PS.KBprojectors blocks to override.
For H, standard SIESTA heuristics set lmxkb to 2
 (one more than the basis l, including polarization orbitals).
Use PS.lmax or PS.KBprojectors blocks to override.
For N, standard SIESTA heuristics set lmxkb to 3
 (one more than the basis l, including polarization orbitals).
Use PS.lmax or PS.KBprojectors blocks to override.

<basis_specs>
===============================================================================
C                    Z=   6    Mass=  12.010        Charge= 0.17977+309
Lmxo=1 Lmxkb= 3    BasisType=split      Semic=F
L=0  Nsemic=0  Cnfigmx=2
          i=1  nzeta=1  polorb=0  (2s)
            splnorm:   0.15000    
               vcte:    0.0000    
               rinn:    0.0000    
               qcoe:    0.0000    
               qyuk:    0.0000    
               qwid:   0.10000E-01
                rcs:    0.0000    
            lambdas:    1.0000    
L=1  Nsemic=0  Cnfigmx=2
          i=1  nzeta=1  polorb=1  (2p)
            splnorm:   0.15000    
               vcte:    0.0000    
               rinn:    0.0000    
               qcoe:    0.0000    
               qyuk:    0.0000    
               qwid:   0.10000E-01
                rcs:    0.0000    
            lambdas:    1.0000    
-------------------------------------------------------------------------------
L=0  Nkbl=1  erefs: 0.17977+309
L=1  Nkbl=1  erefs: 0.17977+309
L=2  Nkbl=1  erefs: 0.17977+309
L=3  Nkbl=1  erefs: 0.17977+309
===============================================================================
</basis_specs>

atom: Called for C                     (Z =   6)

read_vps: Pseudopotential generation method:
read_vps: ATM3      Troullier-Martins                       
Valence charge for ps generation:    4.00000

read_vps: Pseudopotential includes a core correction:
read_vps: Pseudo-core for xc-correction

xc_check: Exchange-correlation functional:
xc_check: Ceperley-Alder
xc_check: WARNING: Pseudopotential generated with GGA PBE functional
V l=0 = -2*Zval/r beyond r=  1.5227
V l=1 = -2*Zval/r beyond r=  1.5227
V l=2 = -2*Zval/r beyond r=  1.5227
V l=3 = -2*Zval/r beyond r=  1.5038
All V_l potentials equal beyond r=  1.5227
This should be close to max(r_c) in ps generation
All pots = -2*Zval/r beyond r=  1.5227

VLOCAL1: 99.0% of the norm of Vloc inside     18.722 Ry
VLOCAL1: 99.9% of the norm of Vloc inside     42.668 Ry
atom: Maximum radius for 4*pi*r*r*local-pseudopot. charge    1.83678
atom: Maximum radius for r*vlocal+2*Zval:    1.58088

KBgen: Kleinman-Bylander projectors: 
GHOST: No ghost state for L =  0
   l= 0   rc=  1.704034   el= -0.998584   Ekb=  5.327875   kbcos=  0.314897
GHOST: No ghost state for L =  1
   l= 1   rc=  1.704034   el= -0.383998   Ekb= -3.785479   kbcos= -0.363289
GHOST: No ghost state for L =  2
   l= 2   rc=  1.791422   el=  0.002326   Ekb= -0.971263   kbcos= -0.009325
GHOST: No ghost state for L =  3
   l= 3   rc=  1.859892   el=  0.003420   Ekb= -0.399672   kbcos= -0.001232

KBgen: Total number of  Kleinman-Bylander projectors:   16
atom: -------------------------------------------------------------------------

atom: SANKEY-TYPE ORBITALS:

SPLIT: Orbitals with angular momentum L= 0

SPLIT: Basis orbitals for state 2s

SPLIT: PAO cut-off radius determined from an
SPLIT: energy shift=  0.020000 Ry

   izeta = 1
                 lambda =    1.000000
                     rc =    4.191849
                 energy =   -0.980459
                kinetic =    0.881507
    potential(screened) =   -1.861966
       potential(ionic) =   -5.449625

SPLIT: Orbitals with angular momentum L= 1

SPLIT: Basis orbitals for state 2p

SPLIT: PAO cut-off radius determined from an
SPLIT: energy shift=  0.020000 Ry

   izeta = 1
                 lambda =    1.000000
                     rc =    4.993604
                 energy =   -0.366127
                kinetic =    2.463190
    potential(screened) =   -2.829316
       potential(ionic) =   -6.291180

POLgen: Perturbative polarization orbital with L=  2

POLgen: Polarization orbital for state 2p

   izeta = 1
                     rc =    4.993604
                 energy =    1.232619
                kinetic =    2.527283
    potential(screened) =   -1.294664
       potential(ionic) =   -4.203101
atom: Total number of Sankey-type orbitals:  9

atm_pop: Valence configuration (for local Pseudopot. screening):
 2s( 2.00)                                                            
 2p( 2.00)                                                            
Vna: chval, zval:    4.00000   4.00000

Vna:  Cut-off radius for the neutral-atom potential:   4.993604
comcore: Pseudo-core radius Rcore=  1.791422

atom: _________________________________________________________________________

<basis_specs>
===============================================================================
O                    Z=   8    Mass=  16.000        Charge= 0.17977+309
Lmxo=1 Lmxkb= 3    BasisType=split      Semic=F
L=0  Nsemic=0  Cnfigmx=2
          i=1  nzeta=1  polorb=0  (2s)
            splnorm:   0.15000    
               vcte:    0.0000    
               rinn:    0.0000    
               qcoe:    0.0000    
               qyuk:    0.0000    
               qwid:   0.10000E-01
                rcs:    0.0000    
            lambdas:    1.0000    
L=1  Nsemic=0  Cnfigmx=2
          i=1  nzeta=1  polorb=1  (2p)
            splnorm:   0.15000    
               vcte:    0.0000    
               rinn:    0.0000    
               qcoe:    0.0000    
               qyuk:    0.0000    
               qwid:   0.10000E-01
                rcs:    0.0000    
            lambdas:    1.0000    
-------------------------------------------------------------------------------
L=0  Nkbl=1  erefs: 0.17977+309
L=1  Nkbl=1  erefs: 0.17977+309
L=2  Nkbl=1  erefs: 0.17977+309
L=3  Nkbl=1  erefs: 0.17977+309
===============================================================================
</basis_specs>

atom: Called for O                     (Z =   8)

read_vps: Pseudopotential generation method:
read_vps: ATM3      Troullier-Martins                       
Valence charge for ps generation:    6.00000

read_vps: Pseudopotential includes a core correction:
read_vps: Pseudo-core for xc-correction

xc_check: Exchange-correlation functional:
xc_check: Ceperley-Alder
xc_check: WARNING: Pseudopotential generated with GGA PBE functional
V l=0 = -2*Zval/r beyond r=  1.4482
V l=1 = -2*Zval/r beyond r=  1.4482
V l=2 = -2*Zval/r beyond r=  1.4482
V l=3 = -2*Zval/r beyond r=  1.4482
All V_l potentials equal beyond r=  1.4482
This should be close to max(r_c) in ps generation
All pots = -2*Zval/r beyond r=  1.4482

VLOCAL1: 99.0% of the norm of Vloc inside     20.696 Ry
VLOCAL1: 99.9% of the norm of Vloc inside     47.167 Ry
atom: Maximum radius for 4*pi*r*r*local-pseudopot. charge    1.74697
atom: Maximum radius for r*vlocal+2*Zval:    1.52250

KBgen: Kleinman-Bylander projectors: 
GHOST: No ghost state for L =  0
   l= 0   rc=  1.620715   el= -1.738829   Ekb=  4.895054   kbcos=  0.290645
GHOST: No ghost state for L =  1
   l= 1   rc=  1.600578   el= -0.650915   Ekb= -6.916539   kbcos= -0.494696
GHOST: No ghost state for L =  2
   l= 2   rc=  1.703827   el=  0.002386   Ekb= -1.538961   kbcos= -0.006789
GHOST: No ghost state for L =  3
   l= 3   rc=  1.746967   el=  0.003508   Ekb= -0.568530   kbcos= -0.000966

KBgen: Total number of  Kleinman-Bylander projectors:   16
atom: -------------------------------------------------------------------------

atom: SANKEY-TYPE ORBITALS:

SPLIT: Orbitals with angular momentum L= 0

SPLIT: Basis orbitals for state 2s

SPLIT: PAO cut-off radius determined from an
SPLIT: energy shift=  0.020000 Ry

   izeta = 1
                 lambda =    1.000000
                     rc =    3.305093
                 energy =   -1.720120
                kinetic =    1.583509
    potential(screened) =   -3.303629
       potential(ionic) =  -11.248859

SPLIT: Orbitals with angular momentum L= 1

SPLIT: Basis orbitals for state 2p

SPLIT: PAO cut-off radius determined from an
SPLIT: energy shift=  0.020000 Ry

   izeta = 1
                 lambda =    1.000000
                     rc =    3.937239
                 energy =   -0.631844
                kinetic =    4.616405
    potential(screened) =   -5.248250
       potential(ionic) =  -12.927368

POLgen: Perturbative polarization orbital with L=  2

POLgen: Polarization orbital for state 2p

   izeta = 1
                     rc =    3.937239
                 energy =    2.368129
                kinetic =    4.725445
    potential(screened) =   -2.357315
       potential(ionic) =   -8.649185
atom: Total number of Sankey-type orbitals:  9

atm_pop: Valence configuration (for local Pseudopot. screening):
 2s( 2.00)                                                            
 2p( 4.00)                                                            
Vna: chval, zval:    6.00000   6.00000

Vna:  Cut-off radius for the neutral-atom potential:   3.937239
comcore: Pseudo-core radius Rcore=  1.377587

atom: _________________________________________________________________________

<basis_specs>
===============================================================================
H                    Z=   1    Mass=  1.0100        Charge= 0.17977+309
Lmxo=0 Lmxkb= 2    BasisType=split      Semic=F
L=0  Nsemic=0  Cnfigmx=1
          i=1  nzeta=1  polorb=1  (1s)
            splnorm:   0.15000    
               vcte:    0.0000    
               rinn:    0.0000    
               qcoe:    0.0000    
               qyuk:    0.0000    
               qwid:   0.10000E-01
                rcs:    0.0000    
            lambdas:    1.0000    
-------------------------------------------------------------------------------
L=0  Nkbl=1  erefs: 0.17977+309
L=1  Nkbl=1  erefs: 0.17977+309
L=2  Nkbl=1  erefs: 0.17977+309
===============================================================================
</basis_specs>

atom: Called for H                     (Z =   1)

read_vps: Pseudopotential generation method:
read_vps: ATM3      Troullier-Martins                       
Valence charge for ps generation:    1.00000

xc_check: Exchange-correlation functional:
xc_check: Ceperley-Alder
xc_check: WARNING: Pseudopotential generated with GGA PBE functional
V l=0 = -2*Zval/r beyond r=  1.2977
V l=1 = -2*Zval/r beyond r=  1.2815
V l=2 = -2*Zval/r beyond r=  1.2656
All V_l potentials equal beyond r=  1.2977
This should be close to max(r_c) in ps generation
All pots = -2*Zval/r beyond r=  1.2977

VLOCAL1: 99.0% of the norm of Vloc inside     25.776 Ry
VLOCAL1: 99.9% of the norm of Vloc inside     58.745 Ry
atom: Maximum radius for 4*pi*r*r*local-pseudopot. charge    1.52711
atom: Maximum radius for r*vlocal+2*Zval:    1.28155

KBgen: Kleinman-Bylander projectors: 
GHOST: No ghost state for L =  0
   l= 0   rc=  1.434438   el= -0.456815   Ekb= -1.960338   kbcos= -0.349997
GHOST: No ghost state for L =  1
   l= 1   rc=  1.508111   el=  0.001431   Ekb= -0.423993   kbcos= -0.025386
GHOST: No ghost state for L =  2
   l= 2   rc=  1.546352   el=  0.002365   Ekb= -0.376562   kbcos= -0.002012

KBgen: Total number of  Kleinman-Bylander projectors:    9
atom: -------------------------------------------------------------------------

atom: SANKEY-TYPE ORBITALS:

SPLIT: Orbitals with angular momentum L= 0

SPLIT: Basis orbitals for state 1s

SPLIT: PAO cut-off radius determined from an
SPLIT: energy shift=  0.020000 Ry

   izeta = 1
                 lambda =    1.000000
                     rc =    4.828263
                 energy =   -0.438372
                kinetic =    0.921576
    potential(screened) =   -1.359947
       potential(ionic) =   -1.906664

POLgen: Perturbative polarization orbital with L=  1

POLgen: Polarization orbital for state 1s

   izeta = 1
                     rc =    4.828263
                 energy =    0.711580
                kinetic =    1.391494
    potential(screened) =   -0.679914
       potential(ionic) =   -1.168115
atom: Total number of Sankey-type orbitals:  4

atm_pop: Valence configuration (for local Pseudopot. screening):
 1s( 1.00)                                                            
Vna: chval, zval:    1.00000   1.00000

Vna:  Cut-off radius for the neutral-atom potential:   4.828263

atom: _________________________________________________________________________

<basis_specs>
===============================================================================
N                    Z=   7    Mass=  14.010        Charge= 0.17977+309
Lmxo=1 Lmxkb= 3    BasisType=split      Semic=F
L=0  Nsemic=0  Cnfigmx=2
          i=1  nzeta=1  polorb=0  (2s)
            splnorm:   0.15000    
               vcte:    0.0000    
               rinn:    0.0000    
               qcoe:    0.0000    
               qyuk:    0.0000    
               qwid:   0.10000E-01
                rcs:    0.0000    
            lambdas:    1.0000    
L=1  Nsemic=0  Cnfigmx=2
          i=1  nzeta=1  polorb=1  (2p)
            splnorm:   0.15000    
               vcte:    0.0000    
               rinn:    0.0000    
               qcoe:    0.0000    
               qyuk:    0.0000    
               qwid:   0.10000E-01
                rcs:    0.0000    
            lambdas:    1.0000    
-------------------------------------------------------------------------------
L=0  Nkbl=1  erefs: 0.17977+309
L=1  Nkbl=1  erefs: 0.17977+309
L=2  Nkbl=1  erefs: 0.17977+309
L=3  Nkbl=1  erefs: 0.17977+309
===============================================================================
</basis_specs>

atom: Called for N                     (Z =   7)

read_vps: Pseudopotential generation method:
read_vps: ATM3      Troullier-Martins                       
Valence charge for ps generation:    5.00000

read_vps: Pseudopotential includes a core correction:
read_vps: Pseudo-core for xc-correction

xc_check: Exchange-correlation functional:
xc_check: Ceperley-Alder
xc_check: WARNING: Pseudopotential generated with GGA PBE functional
V l=0 = -2*Zval/r beyond r=  1.4606
V l=1 = -2*Zval/r beyond r=  1.4606
V l=2 = -2*Zval/r beyond r=  1.4606
V l=3 = -2*Zval/r beyond r=  1.4606
All V_l potentials equal beyond r=  1.4606
This should be close to max(r_c) in ps generation
All pots = -2*Zval/r beyond r=  1.4606

VLOCAL1: 99.0% of the norm of Vloc inside     20.347 Ry
VLOCAL1: 99.9% of the norm of Vloc inside     46.372 Ry
atom: Maximum radius for 4*pi*r*r*local-pseudopot. charge    1.76189
atom: Maximum radius for r*vlocal+2*Zval:    1.53550

KBgen: Kleinman-Bylander projectors: 
GHOST: No ghost state for L =  0
   l= 0   rc=  1.634559   el= -1.348537   Ekb=  5.297520   kbcos=  0.333054
GHOST: No ghost state for L =  1
   l= 1   rc=  1.614250   el= -0.512415   Ekb= -5.262296   kbcos= -0.428933
GHOST: No ghost state for L =  2
   l= 2   rc=  1.718383   el=  0.002346   Ekb= -1.271998   kbcos= -0.007619
GHOST: No ghost state for L =  3
   l= 3   rc=  1.761893   el=  0.003449   Ekb= -0.494630   kbcos= -0.001017

KBgen: Total number of  Kleinman-Bylander projectors:   16
atom: -------------------------------------------------------------------------

atom: SANKEY-TYPE ORBITALS:

SPLIT: Orbitals with angular momentum L= 0

SPLIT: Basis orbitals for state 2s

SPLIT: PAO cut-off radius determined from an
SPLIT: energy shift=  0.020000 Ry

   izeta = 1
                 lambda =    1.000000
                     rc =    3.683980
                 energy =   -1.330014
                kinetic =    1.203086
    potential(screened) =   -2.533100
       potential(ionic) =   -8.093205

SPLIT: Orbitals with angular momentum L= 1

SPLIT: Basis orbitals for state 2p

SPLIT: PAO cut-off radius determined from an
SPLIT: energy shift=  0.020000 Ry

   izeta = 1
                 lambda =    1.000000
                     rc =    4.388595
                 energy =   -0.493943
                kinetic =    3.501321
    potential(screened) =   -3.995264
       potential(ionic) =   -9.374806

POLgen: Perturbative polarization orbital with L=  2

POLgen: Polarization orbital for state 2p

   izeta = 1
                     rc =    4.388595
                 energy =    1.759924
                kinetic =    3.542120
    potential(screened) =   -1.782196
       potential(ionic) =   -6.226799
atom: Total number of Sankey-type orbitals:  9

atm_pop: Valence configuration (for local Pseudopot. screening):
 2s( 2.00)                                                            
 2p( 3.00)                                                            
Vna: chval, zval:    5.00000   5.00000

Vna:  Cut-off radius for the neutral-atom potential:   4.388595
comcore: Pseudo-core radius Rcore=  1.554824

atom: _________________________________________________________________________

prinput: Basis input ----------------------------------------------------------

PAO.BasisType split     

%block ChemicalSpeciesLabel
    1    6 C                       # Species index, atomic number, species label
    2    8 O                       # Species index, atomic number, species label
    3    1 H                       # Species index, atomic number, species label
    4    7 N                       # Species index, atomic number, species label
%endblock ChemicalSpeciesLabel

%block PAO.Basis                 # Define Basis set
C                     2                    # Species label, number of l-shells
 n=2   0   1                         # n, l, Nzeta 
   4.192   
   1.000   
 n=2   1   1 P   1                   # n, l, Nzeta, Polarization, NzetaPol
   4.994   
   1.000   
O                     2                    # Species label, number of l-shells
 n=2   0   1                         # n, l, Nzeta 
   3.305   
   1.000   
 n=2   1   1 P   1                   # n, l, Nzeta, Polarization, NzetaPol
   3.937   
   1.000   
H                     1                    # Species label, number of l-shells
 n=1   0   1 P   1                   # n, l, Nzeta, Polarization, NzetaPol
   4.828   
   1.000   
N                     2                    # Species label, number of l-shells
 n=2   0   1                         # n, l, Nzeta 
   3.684   
   1.000   
 n=2   1   1 P   1                   # n, l, Nzeta, Polarization, NzetaPol
   4.389   
   1.000   
%endblock PAO.Basis

prinput: ----------------------------------------------------------------------

coor:   Atomic-coordinates input format  =     Cartesian coordinates
coor:                                          (in Angstroms)

siesta: Atomic coordinates (Bohr) and species
siesta:     38.93681  26.81677  10.78285  1        1
siesta:     40.26398  24.69975  10.38396  1        2
siesta:     42.73598  24.13288  11.74381  1        3
siesta:     43.34299  24.82694  14.47951  1        4
siesta:     43.54397  27.50248  14.98744  1        5
siesta:     45.40778  28.67349  13.23452  1        6
siesta:     45.21178  31.61977  13.73191  1        7
siesta:     41.98319  32.78435  13.36958  1        8
siesta:     39.83724  32.39395  15.30907  1        9
siesta:     40.11145  32.65194  18.23457  1       10
siesta:     42.19226  31.27854  19.81101  1       11
siesta:     44.97002  32.26873  19.96202  1       12
siesta:     46.50227  32.33837  17.60713  1       13
siesta:     45.37631  34.81552  15.17179  1       14
siesta:     45.45510  34.74948  11.60608  1       15
siesta:     43.68805  35.72101   9.43234  1       16
siesta:     44.53064  34.85076   6.77709  1       17
siesta:     39.49623  23.18596   8.33898  2       18
siesta:     40.21137  20.55892   8.20579  1       19
siesta:     38.13146  18.81621   9.38405  1       20
siesta:     35.58208  18.33941   8.08319  1       21
siesta:     40.90618  19.68774   5.48636  1       22
siesta:     43.19297  20.65174   4.23555  2       23
siesta:     45.56848  19.97190   5.04553  1       24
siesta:     46.01397  19.18560   7.17111  2       25
siesta:     47.61473  20.50079   3.01166  1       26
siesta:     49.37522  18.42792   1.84076  1       27
siesta:     51.39611  17.03050   3.43077  1       28
siesta:     52.96590  15.06546   1.90374  1       29
siesta:     55.00478  13.58174   3.40169  1       30
siesta:     54.19829  11.87001   5.59661  1       31
siesta:     52.74484  12.94848   7.92530  1       32
siesta:     53.20384  14.91649  10.03827  1       33
siesta:     53.73245  17.36689  10.62871  1       34
siesta:     54.60862  19.87071   9.44333  1       35
siesta:     52.91977  22.33518   9.51104  1       36
siesta:     54.33463  24.73942   8.47373  1       37
siesta:     52.78837  27.20447   8.56696  1       38
siesta:     54.12039  29.51144   7.36530  1       39
siesta:     52.60443  31.99493   7.30617  1       40
siesta:     50.28500  31.95046   5.58654  1       41
siesta:     48.18236  30.13352   6.29290  1       42
siesta:     39.49769  28.19554  12.14718  3       43
siesta:     37.30465  27.36327   9.68014  3       44
siesta:     44.21608  24.93349  10.53766  3       45
siesta:     43.04388  22.12629  11.85513  3       46
siesta:     45.24978  24.13012  14.91272  3       47
siesta:     42.02540  24.03399  15.84220  3       48
siesta:     44.02035  27.71988  16.96791  3       49
siesta:     41.73422  28.40263  14.85572  3       50
siesta:     44.92424  28.56917  11.22980  3       51
siesta:     47.39817  28.13366  13.55737  3       52
siesta:     47.22890  31.65403  12.60479  3       53
siesta:     47.27438  32.50575  14.35265  3       54
siesta:     41.26416  32.34639  11.50075  3       55
siesta:     41.81828  35.02690  13.39588  3       56
siesta:     39.14066  30.55679  14.85835  3       57
siesta:     38.23095  33.63705  14.70126  3       58
siesta:     38.31564  31.84565  18.91075  3       59
siesta:     40.07041  34.64224  18.82334  3       60
siesta:     42.02639  29.25687  19.42993  3       61
siesta:     41.60836  31.38710  21.79974  3       62
siesta:     46.07400  31.00759  21.21585  3       63
siesta:     45.06289  34.21094  20.49712  3       64
siesta:     46.39635  30.29358  17.16722  3       65
siesta:     48.56678  32.34564  17.65545  3       66
siesta:     45.41336  36.79880  15.90712  3       67
siesta:     43.47058  34.24983  16.23754  3       68
siesta:     44.96957  32.72240  10.62869  3       69
siesta:     47.40968  34.63045  10.90948  3       70
siesta:     43.77133  37.69950   9.73231  3       71
siesta:     41.71950  35.04531   9.34624  3       72
siesta:     46.33389  35.70945   6.32583  3       73
siesta:     43.10915  35.37830   5.37826  3       74
siesta:     44.62651  32.80068   6.57127  3       75
siesta:     41.89895  20.22986   9.31130  3       76
siesta:     37.71539  19.48229  11.30070  3       77
siesta:     38.99388  16.94123   9.58037  3       78
siesta:     34.54151  20.04396   7.55825  3       79
siesta:     34.36152  17.28965   9.40501  3       80
siesta:     35.77617  17.12920   6.41382  3       81
siesta:     39.34552  20.17152   4.21400  3       82
siesta:     41.07924  17.62544   5.48827  3       83
siesta:     48.76117  22.08221   3.69867  3       84
siesta:     46.56952  21.25884   1.38081  3       85
siesta:     50.43462  19.39842   0.33845  3       86
siesta:     48.20093  17.01041   0.89558  3       87
siesta:     50.40903  16.06292   4.93710  3       88
siesta:     52.71901  18.37734   4.27034  3       89
siesta:     53.96510  16.05606   0.36753  3       90
siesta:     51.70960  13.72028   0.94339  3       91
siesta:     56.47511  14.86176   4.07703  3       92
siesta:     55.95561  12.34136   2.00932  3       93
siesta:     55.84311  10.74748   6.21465  3       94
siesta:     52.95631  10.40382   4.76329  3       95
siesta:     52.43981  11.18750   9.02435  3       96
siesta:     50.83108  13.32504   7.26880  3       97
siesta:     52.67433  13.91550  11.79281  3       98
siesta:     53.57903  17.68991  12.67791  3       99
siesta:     55.28064  19.55030   7.52529  3      100
siesta:     56.28222  20.39046  10.56817  3      101
siesta:     52.28381  22.75448  11.44351  3      102
siesta:     51.21353  22.02335   8.37626  3      103
siesta:     54.83268  24.38935   6.49137  3      104
siesta:     56.08003  25.07543   9.52244  3      105
siesta:     52.20364  27.69275  10.49133  3      106
siesta:     51.10942  26.71661   7.53603  3      107
siesta:     54.71381  29.08008   5.42641  3      108
siesta:     55.84537  29.88010   8.45127  3      109
siesta:     53.85145  33.50695   6.58704  3      110
siesta:     52.09349  32.59312   9.22394  3      111
siesta:     50.86166  31.57241   3.63989  3      112
siesta:     49.51002  33.86570   5.56720  3      113
siesta:     48.60784  28.15027   6.13770  3      114
siesta:     46.65462  30.28078   4.91767  3      115
siesta:     47.50740  30.47735   8.21196  3      116
siesta:      7.75781  54.82099  50.97778  1      117
siesta:     10.19663  54.72308  49.52249  1      118
siesta:     10.12391  54.18450  46.93859  1      119
siesta:     12.37001  54.11618  45.61146  1      120
siesta:     14.65166  54.55049  46.65597  4      121
siesta:     14.74402  55.08123  49.13729  1      122
siesta:     17.08646  55.57191  50.21367  1      123
siesta:     17.35185  56.16035  52.77262  1      124
siesta:     15.23235  56.23482  54.31288  1      125
siesta:     12.85809  55.73987  53.28279  1      126
siesta:     12.56689  55.17913  50.68419  1      127
siesta:      6.12384  54.50957  49.74572  3      128
siesta:      7.51848  56.67943  51.85482  3      129
siesta:      7.72943  53.35432  52.43638  3      130
siesta:      8.35524  53.83194  45.96393  3      131
siesta:     12.39651  53.70640  43.60025  3      132
siesta:     18.75572  55.50781  49.01665  3      133
siesta:     19.21264  56.55779  53.54517  3      134
siesta:     15.41810  56.68458  56.30821  3      135
siesta:     11.22829  55.80700  54.53056  3      136
siesta:     55.55359  52.49220   3.51021  1      137
siesta:     52.99427  51.31490   3.28762  1      138
siesta:     50.94221  52.86165   3.35657  4      139
siesta:     48.59871  51.86901   3.16105  1      140
siesta:     48.07420  49.31973   2.88610  1      141
siesta:     50.15670  47.68423   2.80938  1      142
siesta:     50.43741  45.00508   2.55510  1      143
siesta:     48.72911  42.97754   2.28300  1      144
siesta:     49.66057  40.51024   2.07604  1      145
siesta:     52.25041  40.04463   2.13645  1      146
siesta:     53.98233  42.02079   2.40362  1      147
siesta:     53.01669  44.47499   2.60848  1      148
siesta:     54.25335  46.74162   2.88488  4      149
siesta:     56.14898  46.92690   2.98135  3      150
siesta:     52.57017  48.71945   3.01197  1      151
siesta:     55.41045  54.54568   3.70863  3      152
siesta:     56.67503  52.07857   1.82274  3      153
siesta:     56.53709  51.74564   5.16905  3      154
siesta:     47.07391  53.24273   3.23440  3      155
siesta:     46.15061  48.63912   2.73897  3      156
siesta:     46.70664  43.32067   2.23375  3      157
siesta:     48.34674  38.94456   1.86623  3      158
siesta:     52.93797  38.11442   1.97286  3      159
siesta:     55.99844  41.64991   2.45059  3      160

siesta: System type = molecule  

initatomlists: Number of atoms, orbitals, and projectors:    160   975  1909

coxmol: Writing XMOL coordinates into file siesta.xyz                                                          

siesta: ******************** Simulation parameters ****************************
siesta:
siesta: The following are some of the parameters of the simulation.
siesta: A complete list of the parameters used, including default values,
siesta: can be found in file out.fdf
siesta:
redata: Spin configuration                          = collinear
redata: Number of spin components                   = 2
redata: Time-Reversal Symmetry                      = T
redata: Spin spiral                                 = F
redata: Long output                                 =   T
redata: Number of Atomic Species                    =        4
redata: Charge density info will appear in .RHO file
redata: Write Mulliken Pop.                         = Atomic and Orbital charges
redata: Matel table size (NRTAB)                    =     1024
redata: Mesh Cutoff                                 =   100.0000 Ry
redata: Net charge of the system                    =     0.0000 |e|
redata: Min. number of SCF Iter                     =        0
redata: Max. number of SCF Iter                     =      100
redata: SCF convergence failure will abort job
redata: SCF mix quantity                            = Hamiltonian
redata: Mix DM or H after convergence               =   F
redata: Recompute H after scf cycle                 =   F
redata: Mix DM in first SCF step                    =   T
redata: Write Pulay info on disk                    =   F
redata: New DM Occupancy tolerance                  = 0.000000000001
redata: No kicks to SCF
redata: DM Mixing Weight for Kicks                  =     0.5000
redata: Require Harris convergence for SCF          =   F
redata: Harris energy tolerance for SCF             =     0.000100 eV
redata: Require DM convergence for SCF              =   T
redata: DM tolerance for SCF                        =     0.001000
redata: Require EDM convergence for SCF             =   F
redata: EDM tolerance for SCF                       =     0.001000 eV
redata: Require H convergence for SCF               =   T
redata: Hamiltonian tolerance for SCF               =     0.001000 eV
redata: Require (free) Energy convergence for SCF   =   F
redata: (free) Energy tolerance for SCF             =     0.000100 eV
redata: Antiferro initial spin density              =   F
redata: Using Saved Data (generic)                  =   F
redata: Use continuation files for DM               =   F
redata: Neglect nonoverlap interactions             =   F
redata: Method of Calculation                       = Diagonalization
redata: Electronic Temperature                      =   299.9869 K
redata: Fix the spin of the system                  =   F
redata: Max. number of TDED Iter                    =        1
redata: Number of TDED substeps                     =        3
redata: Dynamics option                             = Nose thermostat MD run
redata: Initial MD time step                        =        1
redata:   Final MD time step                        =       10
redata: Length of MD time step                      =     1.0000 fs
redata: Initial Temperature of MD run               =   300.0000 K
redata: Perform a MD quench                         =   F
redata: Nose mass                                   =  1360.5800 eV/fs**2
redata: Target Temperature                          =   300.0000 Kelvin
mix.SCF: Pulay mixing                            = Pulay
mix.SCF:    Variant                              = stable
mix.SCF:    History steps                        = 3
mix.SCF:    Linear mixing weight                 =     0.250000
mix.SCF:    Mixing weight                        =     0.250000
mix.SCF:    SVD condition                        = 0.1000E-07
mix.SCF: Spin-component mixing                   all
redata: ***********************************************************************

%block SCF.Mixers
  Pulay
%endblock SCF.Mixers

%block SCF.Mixer.Pulay
  # Mixing method
  method pulay
  variant stable

  # Mixing options
  weight 0.2500
  weight.linear 0.2500
  history 3
%endblock SCF.Mixer.Pulay

Size of DM history Fstack: 1
Total number of electrons:   370.000000
Total ionic charge:   370.000000
 Kpoints in:            1 . Kpoints trimmed:            1

siesta: k-point coordinates (Bohr**-1) and weights:
siesta:          1  0.000000E+00  0.000000E+00  0.000000E+00   0.100000E+01

siesta: k-grid: Number of k-points =         1
siesta: k-points from Monkhorst-Pack grid
siesta: k-cutoff (effective) =    16.245 Ang
siesta: k-point supercell and displacements
siesta: k-grid:    1   0   0      0.000
siesta: k-grid:    0   1   0      0.000
siesta: k-grid:    0   0   1      0.000
 Kpoints in:            1 . Kpoints trimmed:            1

siesta: PDOS k-point coordinates (Bohr**-1) and weights:
siesta:          1  0.000000E+00  0.000000E+00  0.000000E+00   0.100000E+01

siesta: PDOS k-grid: Number of k-points =         1
siesta: PDOS k-points from Monkhorst-Pack grid
siesta: PDOS k-cutoff (effective) =     0.000 Ang
siesta: PDOS k-point supercell and displacements
siesta: k-grid:    1   0   0      0.000
siesta: k-grid:    0   1   0      0.000
siesta: k-grid:    0   0   1      0.000

diag: Algorithm                                     = D&C
diag: Used triangular part                          = Lower
diag: Absolute tolerance                            =  0.100E-15
diag: Orthogonalization factor                      =  0.100E-05
diag: Memory factor                                 =  1.0000
Using LatticeConstant from fdf file for BandLinesScale:    1.889727 Bohr
Beware any cell changes by the end of the run
Using LatticeConstant from fdf file for BandLinesScale:    1.889727 Bohr
Beware any cell changes by the end of the run


ts: **************************************************************
ts: Save H and S matrices                           =    F
ts: Save DM and EDM matrices                        =    F
ts: Only save the overlap matrix S                  =    F
ts: **************************************************************

************************ Begin: TS CHECKS AND WARNINGS ************************
************************ End: TS CHECKS AND WARNINGS **************************


                     ====================================
                        Begin MD step =      1
                     ====================================

outcoor: Atomic coordinates (Ang):                          
   20.60446600   14.19081600    5.70603500   1       1  C
   21.30677100   13.07054000    5.49495300   1       2  C
   22.61489800   12.77056500    6.21455500   1       3  C
   22.93611500   13.13784300    7.66222400   1       4  C
   23.04246600   14.55368100    7.93100700   1       5  C
   24.02875300   15.17335100    7.00340200   1       6  C
   23.92503400   16.73245500    7.26661000   1       7  C
   22.21654100   17.34872200    7.07487600   1       8  C
   21.08095000   17.14213100    8.10120900   1       9  C
   21.22605500   17.27865500    9.64931500   1      10  C
   22.32717200   16.55188400   10.48353300   1      11  C
   23.79710100   17.07587200   10.56344000   1      12  C
   24.60793200   17.11271900    9.31728900   1      13  C
   24.01210000   18.42357200    8.02856400   1      14  C
   24.05379100   18.38862400    6.14167100   1      15  C
   23.11871300   18.90273800    4.99138000   1      16  C
   23.56459300   18.44222100    3.58627800   1      17  C
   20.90049800   12.26947500    4.41279700   2      18  O
   21.27893100   10.87931000    4.34231600   1      19  C
   20.17829100    9.95710500    4.96582200   1      20  C
   18.82922000    9.70479200    4.27743800   1      21  C
   21.64660700   10.41829900    2.90325600   1      22  C
   22.85672600   10.92842400    2.24135500   2      23  O
   24.11379400   10.56867100    2.66998100   1      24  C
   24.34953400   10.15257900    3.79478700   2      25  O
   25.19662000   10.84854600    1.59369900   1      26  C
   26.12823200    9.75162900    0.97408700   1      27  C
   27.19763800    9.01214800    1.81548200   1      28  C
   28.02833600    7.97229600    1.00741800   1      29  C
   29.10726200    7.18714200    1.80009800   1      30  C
   28.68048700    6.28133800    2.96159500   1      31  C
   27.91135600    6.85203700    4.19388700   1      32  C
   28.15424700    7.89346500    5.31202400   1      33  C
   28.43397700    9.19016000    5.62446900   1      34  C
   28.89762600   10.51512400    4.99719300   1      35  C
   28.00392500   11.81926200    5.03302400   1      36  C
   28.75263400   13.09153100    4.48410200   1      37  C
   27.93439200   14.39598000    4.53343800   1      38  C
   28.63926700   15.61677500    3.89754800   1      39  C
   27.83705300   16.93098000    3.86625600   1      40  C
   26.60966800   16.90744700    2.95626600   1      41  C
   25.49699500   15.94596400    3.33005900   1      42  C
   20.90126700   14.92043300    6.42801000   3      43  H
   19.74076100   14.48001100    5.12250700   3      44  H
   23.39813300   13.19423200    5.57628600   3      45  H
   22.77782900   11.70872200    6.27346400   3      46  H
   23.94514300   12.76910300    7.89147100   3      47  H
   22.23887300   12.71823700    8.38332900   3      48  H
   23.29455700   14.66872400    8.97903000   3      49  H
   22.08478900   15.03001900    7.86130300   3      50  H
   23.77287200   15.11814800    5.94255200   3      51  H
   25.08202400   14.88768400    7.17425000   3      52  H
   24.99244800   16.75058300    6.67016500   3      53  H
   25.01651700   17.20129500    7.59509100   3      54  H
   21.83604300   17.11696600    6.08593300   3      55  H
   22.12927100   18.53543000    7.08879300   3      56  H
   20.71233600   16.16994900    7.86269800   3      57  H
   20.23093800   17.79995400    7.77956800   3      58  H
   20.27575700   16.85198700   10.00713500   3      59  H
   21.20434100   18.33187600    9.96087700   3      60  H
   22.23939700   15.48206500   10.28187000   3      61  H
   22.01818800   16.60933400   11.53592000   3      62  H
   24.38130300   16.40850100   11.22694200   3      63  H
   23.84624700   18.10364300   10.84660400   3      64  H
   24.55188200   16.03066400    9.08450000   3      65  H
   25.70042200   17.11657000    9.34285900   3      66  H
   24.03170600   19.47307800    8.41768100   3      67  H
   23.00363200   18.12422400    8.59253100   3      68  H
   23.79686400   17.31594100    5.62445700   3      69  H
   25.08811200   18.32563900    5.77304700   3      70  H
   23.16277900   19.94970700    5.15011500   3      71  H
   22.07700000   18.54517000    4.94581600   3      72  H
   24.51882900   18.89662200    3.34748500   3      73  H
   22.81237100   18.72138200    2.84605200   3      74  H
   23.61532300   17.35736600    3.47736400   3      75  H
   22.17196200   10.70517900    4.92732600   3      76  H
   19.95811900   10.30957800    5.98007300   3      77  H
   20.63466600    8.96490800    5.06971400   3      78  H
   18.27857500   10.60680400    3.99965200   3      79  H
   18.18332400    9.14928600    4.97691500   3      80  H
   18.93192800    9.06437700    3.39404500   3      81  H
   20.82074200   10.67430400    2.22995300   3      82  H
   21.73819100    9.32698000    2.90426600   3      83  H
   25.80329000   11.68539600    1.95725000   3      84  H
   24.64352000   11.24969100    0.73069100   3      85  H
   26.68884200   10.26519900    0.17910000   3      86  H
   25.50682400    9.00151600    0.47392100   3      87  H
   26.67530000    8.50012700    2.61260200   3      88  H
   27.89769000    9.72486600    2.25976700   3      89  H
   28.55709000    8.49649800    0.19449100   3      90  H
   27.36353300    7.26045900    0.49922200   3      91  H
   29.88532800    7.86450400    2.15746900   3      92  H
   29.61042400    6.53076300    1.06328700   3      93  H
   29.55089200    5.68731800    3.28865100   3      94  H
   28.02326000    5.50546400    2.52062500   3      95  H
   27.74994000    5.92016600    4.77547800   3      96  H
   26.89863900    7.05130600    3.84648100   3      97  H
   27.87404400    7.36376500    6.24048300   3      98  H
   28.35279200    9.36109300    6.70885700   3      99  H
   29.25324300   10.34556800    3.98221300   3     100  H
   29.78325700   10.79016400    5.59243100   3     101  H
   27.66739000   12.04115000    6.05564000   3     102  H
   27.10102200   11.65425000    4.43252500   3     103  H
   29.01619500   12.90628100    3.43508400   3     104  H
   29.67626200   13.26934200    5.03905600   3     105  H
   27.62496800   14.65436900    5.55176900   3     106  H
   27.04592800   14.13781600    3.98789600   3     107  H
   28.95328900   15.38850800    2.87153000   3     108  H
   29.55208600   15.81186400    4.47222000   3     109  H
   28.49695100   17.73110500    3.48570800   3     110  H
   27.56667800   17.24753200    4.88109600   3     111  H
   26.91482000   16.70739100    1.92614400   3     112  H
   26.19956400   17.92094700    2.94603600   3     113  H
   25.72215200   14.89647300    3.24792800   3     114  H
   24.68855100   16.02389100    2.60231900   3     115  H
   25.13982100   16.12791200    4.34557900   3     116  H
    4.10525200   29.01000500   26.97627100   1     117  C
    5.39582100   28.95819600   26.20616100   1     118  C
    5.35733800   28.67319100   24.83882100   1     119  C
    6.54592500   28.63703700   24.13653800   1     120  C
    7.75332100   28.86686500   24.68926400   4     121  N
    7.80219500   29.14771900   26.00232500   1     122  C
    9.04176300   29.40737500   26.57191700   1     123  C
    9.18220200   29.71876400   27.92605700   1     124  C
    8.06061100   29.75817300   28.74112800   1     125  C
    6.80420300   29.49625700   28.19602800   1     126  C
    6.65010800   29.19952600   26.82090800   1     127  C
    3.24059700   28.84521000   26.32429000   3     128  H
    3.97860700   29.99345200   27.44038000   3     129  H
    4.09023800   28.23387700   27.74812400   3     130  H
    4.42140100   28.48662500   24.32305400   3     131  H
    6.55994800   28.42019200   23.07225000   3     132  H
    9.92509400   29.37345600   25.93848200   3     133  H
   10.16688800   29.92907900   28.33487300   3     134  H
    8.15890600   29.99617800   29.79700900   3     135  H
    5.94175500   29.53177900   28.85631800   3     136  H
   29.39768200   27.77766700    1.85752000   1     137  C
   28.04334700   27.15466600    1.73973500   1     138  C
   26.95744800   27.97316900    1.77621900   4     139  N
   25.71731800   27.44788700    1.67275600   1     140  C
   25.43976200   26.09886900    1.52726000   1     141  C
   26.54177200   25.23340000    1.48665700   1     142  C
   26.69031600   23.81565400    1.35210200   1     143  C
   25.78632600   22.74272600    1.20811000   1     144  C
   26.27923000   21.43708800    1.09859400   1     145  C
   27.64971400   21.19069500    1.13056100   1     146  C
   28.56620900   22.23643400    1.27194100   1     147  C
   28.05521100   23.53514200    1.38034500   1     148  C
   28.70962700   24.73458900    1.52661300   4     149  N
   29.71274700   24.83263700    1.57766200   3     150  H
   27.81892500   25.78121200    1.59386500   1     151  C
   29.32193700   28.86431900    1.96252300   3     152  H
   29.99112100   27.55878100    0.96455100   3     153  H
   29.91812800   27.38260000    2.73534100   3     154  H
   24.91042900   28.17482800    1.71157200   3     155  H
   24.42183900   25.73870400    1.44940000   3     156  H
   24.71607700   22.92430100    1.18204900   3     157  H
   25.58398300   20.60856600    0.98756800   3     158  H
   28.01355500   20.16927300    1.04399000   3     159  H
   29.63308800   22.04017200    1.29679500   3     160  H

outcell: Unit cell vectors (Ang):
       34.750524    0.000000    0.000000
        0.000000   32.490714    0.000000
        0.000000    0.000000   37.617909

outcell: Cell vector modules (Ang)   :   34.750524   32.490714   37.617909
outcell: Cell angles (23,13,12) (deg):     90.0000     90.0000     90.0000
outcell: Cell volume (Ang**3)        :  42473.2276
<dSpData1D:S at geom step 1
  <sparsity:sparsity for geom step 1
    nrows_g=975 nrows=975 sparsity=.2187 nnzs=207913, refcount: 7>
  <dData1D:(new from dSpData1D) n=207913, refcount: 1>
refcount: 1>
new_DM -- step:     1
Initializing Density Matrix...
DM filled with atomic data:
<dSpData2D:DM initialized from atoms
  <sparsity:sparsity for geom step 1
    nrows_g=975 nrows=975 sparsity=.2187 nnzs=207913, refcount: 8>
  <dData2D:DM n=207913 m=2, refcount: 1>
refcount: 1>
     spin moment: S , {S} =  230.00000       0.0       0.0 230.00000
No. of atoms with KB's overlaping orbs in proc 0. Max # of overlaps:     160     169

InitMesh: MESH = 216 x 200 x 240 = 10368000
InitMesh: Mesh cutoff (required, used) =   100.000   104.723 Ry
New grid distribution [1]: sub = 2

stepf: Fermi-Dirac step function

siesta: Program's energy decomposition (eV):
siesta: Ebs     =     -4635.048775
siesta: Eions   =     20397.662598
siesta: Ena     =      4141.148842
siesta: Ekin    =      9221.899704
siesta: Enl     =     -1454.200789
siesta: Eso     =         0.000000
siesta: Edftu   =         0.000000
siesta: DEna    =      -161.129330
siesta: DUscf   =        52.006744
siesta: DUext   =         0.000000
siesta: Exc     =     -4745.362095
siesta: eta*DQ  =         0.000000
siesta: Emadel  =         0.000000
siesta: Emeta   =         0.000000
siesta: Emolmec =         0.000000
siesta: Ekinion =         0.000000
siesta: Eharris =    -13301.804332
siesta: Etot    =    -13343.299521
siesta: FreeEng =    -13343.332651

        iscf     Eharris(eV)        E_KS(eV)     FreeEng(eV)     dDmax    Ef(eV) dHmax(eV)
   scf:    1   -13301.804332   -13343.299521   -13343.332651  0.844546 -4.634956 11.225621
     spin moment: S , {S} =    5.32237       0.0       0.0   5.32237
timer: Routine,Calls,Time,% = IterSCF        1      12.080  34.71
   scf:    2   -13271.624644   -13335.457809   -13335.478703  0.548414 -4.199149 22.068416
     spin moment: S , {S} =    5.72121       0.0       0.0   5.72121
   scf:    3   -13367.287137   -13367.423914   -13367.459339  0.444459 -4.364777  6.630361
     spin moment: S , {S} =    2.00004       0.0       0.0   2.00004
   scf:    4   -13370.168797   -13369.750763   -13369.755194  0.144320 -3.714908  4.286919
     spin moment: S , {S} =    2.00000       0.0       0.0   2.00000
   scf:    5   -13358.000880   -13367.084694   -13367.084713  0.234590 -3.239872  7.018729
     spin moment: S , {S} =    2.00000       0.0       0.0   2.00000
   scf:    6   -13368.363242   -13369.890891   -13369.925568  0.175377 -3.388442  3.924896
     spin moment: S , {S} =    1.99993       0.0       0.0   1.99993
   scf:    7   -13368.952978   -13370.578098   -13370.590511  0.136664 -3.344258  3.304310
     spin moment: S , {S} =    1.89220       0.0       0.0   1.89220
   scf:    8   -13372.176137   -13371.371930   -13371.397032  0.272304 -3.260103  3.878209
     spin moment: S , {S} =    0.37434       0.0       0.0   0.37434
   scf:    9   -13372.099575   -13371.826494   -13371.830816  0.098373 -3.143589  2.419405
     spin moment: S , {S} =    0.03256       0.0       0.0   0.03256
   scf:   10   -13356.636291   -13367.074216   -13367.105431  0.386177 -3.040054  9.957480
     spin moment: S , {S} =   -1.99753       0.0       0.0  -1.99753
   scf:   11   -13370.317967   -13371.884839   -13371.884952  0.419436 -3.182576  2.471722
     spin moment: S , {S} =    0.00046       0.0       0.0   0.00046
   scf:   12   -13372.006432   -13371.948238   -13371.948253  0.018211 -3.194065  1.811291
     spin moment: S , {S} =    0.00005       0.0       0.0   0.00005
   scf:   13   -13371.980182   -13371.964510   -13371.964527  0.005017 -3.187911  1.636547
     spin moment: S , {S} =    0.00002       0.0       0.0   0.00002
   scf:   14   -13341.288394   -13362.338566   -13362.374909  0.384214 -3.217222 12.805545
     spin moment: S , {S} =   -1.99636       0.0       0.0  -1.99636
   scf:   15   -13370.188813   -13371.971159   -13371.971194  0.380758 -3.178906  1.540237
     spin moment: S , {S} =   -0.00001       0.0       0.0  -0.00001
   scf:   16   -13371.986732   -13371.978969   -13371.979130  0.002968 -3.161493  1.459051
     spin moment: S , {S} =   -0.00044       0.0       0.0  -0.00044
   scf:   17   -13371.964791   -13371.971932   -13371.971976  0.002443 -3.176823  1.540635
     spin moment: S , {S} =   -0.00006       0.0       0.0  -0.00006
   scf:   18   -13298.447968   -13348.354685   -13348.355694  0.375782 -3.197802 17.542257
     spin moment: S , {S} =   -0.00252       0.0       0.0  -0.00252
   scf:   19   -13380.138346   -13369.591294   -13369.636070  0.365105 -3.109873  6.004324
     spin moment: S , {S} =   -1.47363       0.0       0.0  -1.47363
   scf:   20   -13371.029471   -13371.981746   -13371.982168  0.283800 -3.155093  1.426526
     spin moment: S , {S} =   -0.00151       0.0       0.0  -0.00151
   scf:   21   -13371.998995   -13371.990495   -13371.992099  0.004779 -3.142094  1.314268
     spin moment: S , {S} =   -0.00776       0.0       0.0  -0.00776
   scf:   22   -13372.054110   -13372.047690   -13372.067198  0.040711 -3.116754  0.287149
     spin moment: S , {S} =   -0.18597       0.0       0.0  -0.18597
   scf:   23   -13371.784725   -13371.953888   -13371.953892  0.059379 -3.195366  1.762991
     spin moment: S , {S} =    0.00001       0.0       0.0   0.00001
   scf:   24   -13371.980323   -13371.967238   -13371.967278  0.004388 -3.180190  1.602748
     spin moment: S , {S} =    0.00009       0.0       0.0   0.00009
   scf:   25   -13300.143257   -13348.919648   -13348.923685  0.378693 -3.151111 17.116109
     spin moment: S , {S} =   -0.00327       0.0       0.0  -0.00327
   scf:   26   -13347.623752   -13348.274713   -13348.274853  0.004781 -3.259116 17.684658
     spin moment: S , {S} =    0.00046       0.0       0.0   0.00046
   scf:   27   -13369.710374   -13371.999117   -13372.001107  0.372258 -3.137618  1.122968
     spin moment: S , {S} =    0.00816       0.0       0.0   0.00816
   scf:   28   -13372.013614   -13372.006769   -13372.011113  0.001502 -3.135914  0.992651
     spin moment: S , {S} =    0.01491       0.0       0.0   0.01491
   scf:   29   -13372.036799   -13372.025066   -13372.037289  0.006850 -3.128953  0.618427
     spin moment: S , {S} =    0.03264       0.0       0.0   0.03264
   scf:   30   -13371.415102   -13371.881702   -13371.914155  0.076454 -3.239842  1.288032
     spin moment: S , {S} =    0.46336       0.0       0.0   0.46336
   scf:   31   -13372.007362   -13372.048470   -13372.063750  0.068101 -3.142932  0.448610
     spin moment: S , {S} =    0.07876       0.0       0.0   0.07876
   scf:   32   -13371.998698   -13372.028166   -13372.036630  0.009978 -3.147672  0.841238
     spin moment: S , {S} =    0.04469       0.0       0.0   0.04469
   scf:   33   -13368.915240   -13371.088460   -13371.158856  0.104077 -3.108113  3.740454
     spin moment: S , {S} =   -0.07672       0.0       0.0  -0.07672
   scf:   34   -13372.016601   -13372.051752   -13372.070093  0.096673 -3.137739  0.264198
     spin moment: S , {S} =    0.07749       0.0       0.0   0.07749
   scf:   35   -13372.051216   -13372.051545   -13372.069423  0.001602 -3.135610  0.294494
     spin moment: S , {S} =    0.06605       0.0       0.0   0.06605
   scf:   36   -13372.052534   -13372.052232   -13372.071677  0.002163 -3.132142  0.205666
     spin moment: S , {S} =    0.05777       0.0       0.0   0.05777
   scf:   37   -13372.009302   -13372.038561   -13372.067522  0.016674 -3.118211  0.289924
     spin moment: S , {S} =   -0.02834       0.0       0.0  -0.02834
   scf:   38   -13372.056236   -13372.051692   -13372.074099  0.011658 -3.125191  0.054866
     spin moment: S , {S} =    0.02860       0.0       0.0   0.02860
   scf:   39   -13372.051136   -13372.051428   -13372.074253  0.000767 -3.124280  0.035286
     spin moment: S , {S} =    0.02375       0.0       0.0   0.02375
   scf:   40   -13372.050117   -13372.050812   -13372.074351  0.001194 -3.122990  0.002188
     spin moment: S , {S} =    0.01723       0.0       0.0   0.01723
   scf:   41   -13372.050993   -13372.050904   -13372.074351  0.000225 -3.122995  0.006599
     spin moment: S , {S} =    0.01833       0.0       0.0   0.01833
   scf:   42   -13372.050652   -13372.050780   -13372.074352  0.000176 -3.122932  0.002400
     spin moment: S , {S} =    0.01793       0.0       0.0   0.01793
   scf:   43   -13372.050815   -13372.050797   -13372.074355  0.000338 -3.122809  0.001009
     spin moment: S , {S} =    0.02029       0.0       0.0   0.02029
   scf:   44   -13372.050808   -13372.050803   -13372.074355  0.000074 -3.122821  0.000905
     spin moment: S , {S} =    0.02052       0.0       0.0   0.02052

SCF Convergence by DM+H criterion
max |DM_out - DM_in|         :     0.0000735959
max |H_out - H_in|      (eV) :     0.0009046570
SCF cycle converged after 44 iterations

Using DM_out to compute the final energy and forces
No. of atoms with KB's overlaping orbs in proc 0. Max # of overlaps:     160     169

siesta: E_KS(eV) =           -13372.0508

siesta: E_KS - E_eggbox =    -13372.0508
     spin moment: S , {S} =    0.02052       0.0       0.0   0.02052

siesta: Atomic forces (eV/Ang):
     1    0.337879   -1.202714   -0.315010
     2    0.689489   -1.349768    0.061467
     3   -1.607160    0.869150    0.830229
     4   -0.823993   -0.092627   -1.752583
     5    1.030655   -0.026446   -1.381629
     6   -1.699134    2.921831    2.689019
     7   -2.988531   -2.969779   -3.704364
     8    0.087016    0.380128    2.078292
     9    2.187744    0.137418    0.771821
    10    1.939844   -1.054325   -1.141415
    11    0.864710    2.026681   -1.660554
    12   -0.826393   -0.912257   -1.582905
    13   -0.968825    2.810613    1.012447
    14   -0.470687   -2.647902    4.082552
    15   -1.865499   -0.803883   -2.168398
    16    1.436482   -1.596269    0.018119
    17   -0.286827    0.921929    2.430523
    18    1.668402    1.076556   -2.962284
    19   -1.750989    0.208715   -0.570810
    20   -0.141177    0.869003   -2.281619
    21    1.973559    0.435060    0.677753
    22    1.676176    1.724281    1.710105
    23   -2.486988   -3.182344   -4.387950
    24    0.423853   -0.365483   -0.214680
    25   -2.661535   -0.950482   -1.138057
    26   -0.427533   -2.071291    0.164876
    27    0.466441    0.248523    2.401548
    28   -0.422773   -0.538194   -2.452475
    29   -0.034711    0.657094    2.462721
    30   -2.280294    0.019954    0.405573
    31   -0.442924    2.551898   -0.030951
    32    1.693221    0.483359   -0.415444
    33    0.701909    0.142111   -1.399254
    34   -0.117837    1.086039   -1.541672
    35   -1.976823    0.102839    0.654821
    36    2.427879    0.007081   -0.944354
    37   -2.080459   -0.433291    1.165517
    38    2.304572   -0.173663   -0.975468
    39   -2.227218   -0.222540    0.982381
    40   -0.545288   -2.238508   -1.266275
    41    0.358534   -1.431350    1.849783
    42    1.221844    1.407058   -0.609399
    43    1.172054    1.917819    2.037349
    44   -2.002509    0.338093   -1.468207
    45    1.646015    0.509325   -1.103595
    46    0.416070   -2.685088   -0.511259
    47    1.454849   -1.127778    0.124700
    48   -1.482353   -1.234781    1.286126
    49    0.899119    0.437120    2.039627
    50   -2.286231    1.399642   -0.318193
    51   -0.628722   -0.807583   -2.034668
    52    1.465250   -0.528697    0.193551
    53    1.041906   -0.406621   -2.143412
    54   -0.610781   -0.434236    0.643635
    55   -1.037696   -1.250346   -2.124133
    56    0.845007   -1.301598   -0.775310
    57   -1.450432   -2.818180   -0.001844
    58   -0.642202    0.787380   -0.195804
    59   -1.431258   -0.556821    0.695184
    60    0.019758    1.831511    0.356094
    61    0.193523   -2.039815   -0.575243
    62   -0.789939    0.266938    1.630414
    63    0.545178   -0.782954    1.437358
    64   -0.353716    2.892348    1.866035
    65   -0.661337   -1.161233   -1.855473
    66    2.181567    0.837047    1.140754
    67    1.165750    2.037227    0.242133
    68    1.159957    0.765538   -0.506696
    69    0.847983    1.009903    0.495910
    70    1.932356    0.494861   -0.507309
    71   -0.442023    3.825432   -0.500096
    72   -1.370603   -0.297620    1.048477
    73    2.097027    0.822862   -0.782324
    74   -1.321823    0.899641   -1.293408
    75    0.374428   -1.985085    0.285226
    76    2.357389   -0.567552    1.337159
    77   -0.108775    0.787237    1.804730
    78    0.930603   -1.611731    0.303361
    79   -0.867062    1.811081   -0.508327
    80   -0.855282   -0.786047    1.055916
    81    0.253395   -0.982552   -1.574632
    82   -1.595747    0.536695   -1.403832
    83    0.061511   -2.155144    0.369329
    84    1.253450    1.560109    0.779718
    85   -0.888009    0.731530   -1.349926
    86    0.680077    0.936444   -1.392088
    87   -1.117842   -1.371457   -0.936047
    88   -1.044966   -1.064955    2.111669
    89    1.258094    1.441236    1.041912
    90    0.815708    0.855724   -1.254715
    91   -1.282425   -1.238483   -0.773953
    92    1.480289    1.502901    0.656797
    93    0.687645   -0.868509   -0.976757
    94    1.448912   -0.644450    0.573322
    95   -1.155011   -0.938065   -0.347706
    96   -0.219998   -0.995048    0.731026
    97   -2.139390    0.409100   -0.787698
    98   -0.298454   -0.645257    1.373647
    99   -0.266766    0.111139    1.824575
   100    0.762667   -0.174572   -2.258194
   101    1.567811    0.418357    0.827278
   102   -0.562240    0.259365    1.805666
   103   -1.777939   -0.328867   -1.119975
   104    0.552383   -0.281839   -1.809703
   105    1.935836    0.053501    1.053480
   106   -0.573512    0.361309    1.938714
   107   -2.272855   -0.317689   -1.212167
   108    0.528096   -0.531127   -1.801409
   109    1.679327    0.262255    0.958939
   110    1.033425    1.094820   -0.544444
   111   -0.651901    0.445217    1.903212
   112    0.697353   -0.428619   -1.896896
   113   -0.864628    1.851479   -0.018988
   114    0.916565   -2.233155   -0.051138
   115   -1.587735    0.582913   -1.076026
   116   -0.820788    0.392374    1.943557
   117    1.808820   -0.023667   -1.015464
   118   -1.110319   -0.164121   -0.183746
   119    0.697201    0.445540    1.828412
   120    1.763929    0.495003    1.843772
   121    0.255386    0.213948   -2.043028
   122   -0.831699   -0.141103   -0.139929
   123    0.210257    0.442225    1.982487
   124   -0.925333   -0.461112   -1.652775
   125   -1.198704   -0.457696   -1.339691
   126    1.208175    0.053942   -0.636248
   127   -0.693690    0.085867    0.624778
   128   -1.341604   -0.315017   -1.242278
   129   -0.180156    1.720240    1.051740
   130   -0.018217   -1.305782    1.590817
   131   -2.197022   -0.397566   -1.018601
   132   -0.104248   -0.559823   -2.627192
   133    1.814671   -0.118581   -1.539946
   134    2.178530    0.442816    0.877811
   135    0.165482    0.507166    2.330457
   136   -2.087213    0.046778    1.296339
   137   -1.520463   -1.013688   -0.156514
   138   -1.047538    0.747151    0.025032
   139    1.372022    0.421768   -0.207018
   140    1.647295   -1.028530   -0.019927
   141    1.569065    0.162038    0.098649
   142   -1.581841    0.020627   -0.062436
   143   -1.603537   -0.758349   -0.131279
   144    1.685580   -0.262335    0.069009
   145    0.377762    1.700756    0.201873
   146    0.074469    1.609560    0.154440
   147   -1.595498    0.218027   -0.053244
   148    0.800815   -0.382150    0.015203
   149   -0.822603   -0.751092    0.377869
   150    3.031892    0.349405    0.161819
   151    0.939393    0.261202    0.044114
   152   -0.388071    1.880142    0.171548
   153    1.242578   -0.433198   -1.625660
   154    1.112632   -0.752541    1.589611
   155   -2.042547    1.640952    0.080394
   156   -2.469549   -0.872824   -0.189598
   157   -2.461035    0.412549   -0.057953
   158   -1.525848   -1.804957   -0.228732
   159    0.803632   -2.229102   -0.175275
   160    2.443505   -0.450003    0.051800
----------------------------------------
   Tot   -3.291648   -4.087411   -8.201578
----------------------------------------
   Max    4.387950
   Res    1.317235    sqrt( Sum f_i^2 / 3N )
----------------------------------------
   Max    4.387950    constrained

Stress tensor Voigt[x,y,z,yz,xz,xy] (kbar):       -3.32       -2.48       -3.02       -0.37       -0.28       -0.46
(Free)E + p*V (eV/cell)   -13294.0904
Target enthalpy (eV/cell)   -13372.0744

siesta: Stress tensor (static) (eV/Ang**3):
        -0.001965   -0.000277   -0.000165
        -0.000277   -0.001449   -0.000219
        -0.000165   -0.000219   -0.001806

siesta: Pressure (static):          2.78781222  kBar

siesta: Stress tensor (total) (eV/Ang**3):
        -0.002072   -0.000288   -0.000177
        -0.000288   -0.001551   -0.000229
        -0.000177   -0.000229   -0.001886

siesta: Pressure (total):          2.94174496  kBar

mulliken: Atomic and Orbital Populations:

mulliken: Spin UP 

Species: C                   
Atom  Qatom  Qorb
               2s      2py     2pz     2px     3Pdxy   3Pdyz   3Pdz2   3Pdxz   
               3Pdx2-y2
   1  2.148   0.483   0.543   0.552   0.549   0.006   0.003   0.003   0.006
              0.003
   2  1.962   0.473   0.482   0.431   0.502   0.017   0.006   0.020   0.022
              0.011
   3  2.154   0.487   0.569   0.533   0.532  -0.000   0.001   0.008   0.011
              0.012
   4  2.140   0.484   0.543   0.523   0.562   0.003   0.003   0.009   0.005
              0.009
   5  2.150   0.474   0.533   0.553   0.557   0.007   0.003   0.008   0.006
              0.009
   6  2.136   0.496   0.507   0.550   0.543   0.002   0.012   0.010   0.007
              0.009
   7  2.083   0.544   0.441   0.557   0.452   0.010   0.006   0.011   0.011
              0.052
   8  2.116   0.544   0.528   0.525   0.480   0.005   0.003   0.008   0.013
              0.010
   9  2.158   0.503   0.565   0.508   0.541   0.010   0.004   0.012   0.009
              0.007
  10  2.150   0.506   0.556   0.514   0.544   0.004   0.004   0.009   0.007
              0.007
  11  2.146   0.505   0.553   0.554   0.508   0.003   0.002   0.009   0.004
              0.007
  12  2.154   0.491   0.562   0.543   0.520   0.005   0.005   0.009   0.007
              0.011
  13  2.123   0.527   0.515   0.501   0.542   0.001   0.005   0.007   0.006
              0.019
  14  2.141   0.576   0.488   0.457   0.554   0.002   0.019   0.022   0.006
              0.017
  15  2.112   0.549   0.520   0.482   0.520   0.001   0.005   0.011   0.011
              0.013
  16  2.154   0.500   0.561   0.500   0.548   0.004   0.005   0.016   0.008
              0.012
  17  2.212   0.517   0.574   0.534   0.567   0.004   0.001   0.005   0.004
              0.007
  19  2.022   0.490   0.385   0.526   0.548   0.028   0.014   0.011   0.009
              0.011
  20  2.135   0.501   0.547   0.550   0.514   0.006   0.003   0.006   0.004
              0.005
  21  2.218   0.519   0.573   0.566   0.540   0.004   0.006   0.002   0.005
              0.004
  22  2.085   0.506   0.551   0.521   0.443   0.010   0.005   0.014   0.023
              0.012
  24  1.857   0.443   0.427   0.426   0.418   0.021   0.018   0.028   0.066
              0.010
  26  2.151   0.503   0.546   0.538   0.532   0.010   0.006   0.003   0.013
              0.000
  27  2.138   0.505   0.536   0.542   0.531   0.008   0.007   0.001   0.008
              0.000
  28  2.145   0.504   0.538   0.544   0.535   0.009   0.006   0.001   0.007
              0.001
  29  2.137   0.505   0.536   0.540   0.534   0.008   0.007   0.001   0.007
             -0.001
  30  2.140   0.501   0.543   0.532   0.540   0.008   0.008   0.002   0.006
              0.000
  31  2.142   0.504   0.541   0.512   0.556   0.008   0.011   0.004   0.004
              0.001
  32  2.166   0.504   0.540   0.526   0.556   0.004   0.013   0.003   0.008
              0.012
  33  2.079   0.500   0.524   0.526   0.496   0.005   0.013   0.009   0.001
              0.005
  34  2.072   0.495   0.512   0.544   0.492   0.004   0.008   0.012  -0.000
              0.006
  35  2.160   0.506   0.509   0.565   0.547   0.010   0.004   0.006   0.006
              0.008
  36  2.138   0.512   0.501   0.562   0.541   0.005   0.001   0.006   0.005
              0.004
  37  2.135   0.504   0.508   0.559   0.543   0.006   0.001   0.007   0.004
              0.004
  38  2.143   0.499   0.514   0.558   0.548   0.007   0.003   0.005   0.005
              0.004
  39  2.138   0.501   0.512   0.559   0.545   0.006   0.003   0.005   0.004
              0.003
  40  2.138   0.500   0.535   0.551   0.530   0.006   0.002   0.006   0.006
              0.003
  41  2.147   0.497   0.553   0.551   0.522   0.006   0.001   0.007   0.006
              0.004
  42  2.216   0.512   0.564   0.565   0.552   0.005   0.001   0.006   0.006
              0.005
 117  2.227   0.512   0.577   0.568   0.544   0.004   0.010  -0.001   0.008
              0.006
 118  2.000   0.473   0.468   0.521   0.512   0.002   0.004   0.009   0.008
              0.004
 119  2.060   0.467   0.497   0.530   0.546   0.003   0.005   0.006   0.005
              0.003
 120  2.023   0.460   0.479   0.546   0.482   0.012   0.001   0.020   0.011
              0.012
 122  1.969   0.434   0.480   0.467   0.527   0.008   0.009   0.013   0.028
              0.002
 123  2.055   0.472   0.487   0.534   0.543   0.002   0.004   0.007   0.002
              0.003
 124  2.070   0.474   0.490   0.532   0.549   0.003   0.007   0.005   0.007
              0.003
 125  2.071   0.474   0.492   0.551   0.530   0.008   0.002   0.004   0.011
              0.000
 126  2.064   0.476   0.493   0.531   0.543   0.003   0.004   0.008   0.004
              0.003
 127  2.007   0.454   0.489   0.519   0.520   0.004   0.007   0.004   0.010
             -0.000
 137  2.234   0.513   0.576   0.575   0.542   0.004   0.002   0.004   0.014
              0.005
 138  1.971   0.453   0.490   0.487   0.482   0.021   0.009   0.001   0.001
              0.027
 140  2.027   0.457   0.530   0.493   0.491   0.029   0.007   0.001   0.006
              0.013
 141  2.070   0.470   0.533   0.493   0.549   0.007   0.007   0.000   0.002
              0.007
 142  2.009   0.453   0.512   0.500   0.519   0.007   0.008  -0.002   0.006
              0.006
 143  2.011   0.452   0.511   0.508   0.516   0.001   0.008  -0.002   0.005
              0.012
 144  2.070   0.478   0.527   0.488   0.553   0.010   0.008   0.000   0.002
              0.004
 145  2.073   0.473   0.540   0.500   0.536   0.004   0.004   0.000   0.005
              0.011
 146  2.069   0.475   0.548   0.489   0.532   0.008   0.002   0.000   0.009
              0.006
 147  2.079   0.469   0.520   0.514   0.552   0.010   0.007   0.001   0.002
              0.005
 148  1.953   0.442   0.469   0.497   0.508   0.008   0.014  -0.002   0.009
              0.008
 151  1.945   0.439   0.484   0.503   0.487   0.010   0.010  -0.003   0.011
              0.003

Species: O                   
Atom  Qatom  Qorb
               2s      2py     2pz     2px     3Pdxy   3Pdyz   3Pdz2   3Pdxz   
               3Pdx2-y2
  18  3.128   0.848   0.648   0.761   0.847   0.004   0.005   0.007   0.003
              0.005
  23  3.120   0.847   0.812   0.828   0.610   0.006   0.003   0.003   0.007
              0.005
  25  3.144   0.882   0.667   0.724   0.842   0.001   0.009   0.011   0.005
              0.001

Species: H                   
Atom  Qatom  Qorb
               1s      2Ppy    2Ppz    2Ppx    
  43  0.429   0.438   0.000   0.002  -0.011
  44  0.447   0.438  -0.004   0.004   0.009
  45  0.415   0.437  -0.016  -0.004  -0.003
  46  0.413   0.444   0.002  -0.020  -0.012
  47  0.429   0.451  -0.014  -0.011   0.002
  48  0.435   0.450  -0.009  -0.001  -0.006
  49  0.431   0.463  -0.019   0.001  -0.013
  50  0.403   0.450  -0.023  -0.020  -0.004
  51  0.439   0.454  -0.013   0.008  -0.010
  52  0.459   0.464  -0.006  -0.008   0.009
  53  0.417   0.434  -0.026   0.003   0.006
  54  0.397   0.378   0.008  -0.011   0.022
  55  0.464   0.470  -0.011   0.004   0.000
  56  0.427   0.452   0.009  -0.021  -0.014
  57  0.439   0.463  -0.002  -0.014  -0.008
  58  0.437   0.450  -0.009  -0.007   0.003
  59  0.423   0.443  -0.011  -0.010   0.002
  60  0.441   0.452   0.004  -0.005  -0.010
  61  0.428   0.450   0.006  -0.020  -0.008
  62  0.424   0.443  -0.014   0.005  -0.011
  63  0.434   0.446  -0.005  -0.004  -0.003
  64  0.430   0.445   0.005  -0.011  -0.009
  65  0.398   0.446   0.006  -0.027  -0.027
  66  0.469   0.463  -0.007  -0.001   0.014
  67  0.468   0.444   0.014   0.007   0.002
  68  0.384   0.426  -0.021  -0.011  -0.011
  69  0.373   0.412  -0.006  -0.009  -0.024
  70  0.470   0.465  -0.007   0.002   0.010
  71  0.433   0.442   0.005  -0.004  -0.010
  72  0.432   0.453  -0.013  -0.015   0.008
  73  0.433   0.453  -0.010  -0.008  -0.001
  74  0.433   0.452  -0.013   0.000  -0.005
  75  0.414   0.452  -0.002  -0.011  -0.025
  76  0.412   0.423  -0.012  -0.012   0.013
  77  0.423   0.438  -0.010   0.004  -0.010
  78  0.425   0.444   0.003  -0.013  -0.010
  79  0.427   0.443  -0.003  -0.011  -0.003
  80  0.423   0.445  -0.010  -0.007  -0.004
  81  0.429   0.449  -0.007  -0.002  -0.010
  82  0.407   0.417  -0.013  -0.004   0.006
  83  0.414   0.423   0.009  -0.011  -0.007
  84  0.416   0.432   0.002  -0.011  -0.007
  85  0.418   0.433  -0.009  -0.002  -0.003
  86  0.424   0.443  -0.010  -0.001  -0.007
  87  0.428   0.443  -0.003  -0.005  -0.006
  88  0.414   0.440  -0.013  -0.005  -0.008
  89  0.427   0.445  -0.004  -0.010  -0.004
  90  0.430   0.447  -0.008  -0.000  -0.008
  91  0.433   0.447  -0.004  -0.005  -0.005
  92  0.429   0.444  -0.006  -0.009  -0.000
  93  0.427   0.445  -0.007  -0.004  -0.007
  94  0.429   0.444  -0.004  -0.009  -0.003
  95  0.426   0.445  -0.002  -0.008  -0.009
  96  0.416   0.442  -0.002  -0.012  -0.012
  97  0.418   0.440  -0.015  -0.014   0.007
  98  0.428   0.434  -0.015   0.002   0.006
  99  0.436   0.437  -0.015   0.010   0.004
 100  0.426   0.442  -0.008   0.001  -0.008
 101  0.418   0.438  -0.011  -0.010   0.000
 102  0.431   0.444  -0.006   0.001  -0.008
 103  0.429   0.440  -0.006  -0.009   0.004
 104  0.433   0.448  -0.009   0.003  -0.009
 105  0.433   0.447  -0.008  -0.009   0.003
 106  0.436   0.449  -0.006   0.001  -0.008
 107  0.412   0.448  -0.017  -0.012  -0.007
 108  0.432   0.447  -0.008   0.002  -0.009
 109  0.429   0.446  -0.009  -0.009   0.001
 110  0.429   0.446  -0.001  -0.012  -0.005
 111  0.435   0.448  -0.008   0.003  -0.009
 112  0.430   0.447  -0.012   0.004  -0.009
 113  0.420   0.445   0.003  -0.014  -0.015
 114  0.428   0.457   0.005  -0.017  -0.017
 115  0.437   0.457  -0.016  -0.002  -0.003
 116  0.436   0.456  -0.015   0.003  -0.008
 128  0.419   0.441  -0.014  -0.008  -0.000
 129  0.418   0.438   0.001  -0.009  -0.011
 130  0.418   0.437  -0.004  -0.004  -0.011
 131  0.439   0.432   0.006  -0.004   0.005
 132  0.428   0.419   0.005   0.012  -0.008
 133  0.431   0.423   0.005   0.000   0.003
 134  0.434   0.427   0.006  -0.006   0.007
 135  0.435   0.428   0.006   0.009  -0.009
 136  0.435   0.431   0.006  -0.002   0.000
 150  0.337   0.325  -0.009   0.021   0.001
 152  0.414   0.431   0.004  -0.014  -0.008
 153  0.417   0.437  -0.013  -0.002  -0.006
 154  0.417   0.437  -0.011  -0.002  -0.007
 155  0.428   0.419  -0.000   0.005   0.005
 156  0.433   0.424  -0.007   0.006   0.009
 157  0.431   0.424  -0.009   0.006   0.010
 158  0.435   0.427   0.002   0.007  -0.002
[...]
   11.2117   11.2732   11.3247   11.3681   11.4371   11.4955   11.6129   11.6261   11.6789   11.7249
   11.8560   11.8894   11.9190   12.0089   12.0290   12.0565   12.1473   12.2466   12.2861   12.3064
   12.3347   12.3841   12.4644   12.6039   12.6337   12.7645   12.7746   12.8194   12.8666   12.8711
   12.9139   13.0075   13.0826   13.1105   13.1917   13.2493   13.2791   13.2989   13.3462   13.4426
   13.5006   13.6711   13.7465   13.7482   13.8044   13.8187   13.8674   13.9134   13.9696   14.0470
   14.0705   14.1449   14.1634   14.1789   14.1820   14.2186   14.3291   14.3378   14.3671   14.4369
   14.4570   14.5386   14.7205   14.9032   14.9476   14.9901   15.0694   15.1985   15.4261   15.4771
   15.5784   15.6211   15.6594   15.6951   15.7116   15.8507   15.8508   15.9421   15.9847   16.0147
   16.1015   16.2024   16.2780   16.3118   16.4101   16.4298   16.5254   16.5315   16.6707   16.7423
   17.0157   17.0860   17.1665   17.2073   17.3108   17.3262   17.4809   17.5693   17.7070   17.7675
   17.8138   17.9306   18.0216   18.0705   18.1017   18.2090   18.3302   18.3677   18.3968   18.4690
   18.5161   18.6171   18.6868   18.7231   18.8871   19.0240   19.0583   19.2523   19.3102   19.3805
   19.4527   19.5617   19.6150   19.6449   19.6525   19.7557   19.8710   20.0049   20.1216   20.1599
   20.1973   20.2632   20.3391   20.4061   20.4491   20.5285   20.5674   20.6510   20.6997   20.7615
   20.8659   20.9375   21.0362   21.1434   21.1671   21.2195   21.3224   21.5169   21.5866   21.6962
   21.7756   21.7995   21.8303   21.8808   21.9812   22.0565   22.0588   22.1035   22.1904   22.2243
   22.3269   22.4342   22.5209   22.5481   22.6020   22.6637   22.6808   22.8132   22.8730   22.9284
   23.0154   23.1280   23.2092   23.2381   23.2570   23.3383   23.4706   23.5407   23.6439   23.7125
   23.7887   23.8841   24.0189   24.0854   24.1271   24.2180   24.2993   24.3769   24.5100   24.5126
   24.6420   24.6794   24.7456   24.7844   24.8419   24.8541   24.8971   24.9641   25.0603   25.1208
   25.1691   25.2769   25.3276   25.3577   25.4085   25.5985   25.6036   25.6664   25.8911   25.9024
   26.0451   26.0777   26.1030   26.1794   26.2376   26.3174   26.5143   26.5175   26.6032   26.6652
   26.6918   26.7326   26.8207   26.9376   27.0611   27.1643   27.2592   27.2629   27.3705   27.4640
   27.5717   27.6750   27.6980   27.7565   27.8268   27.9113   27.9384   28.0599   28.1570   28.2064
   28.3422   28.4459   28.4795   28.4942   28.5547   28.7639   28.8326   28.8980   29.0191   29.0864
   29.1552   29.2079   29.2732   29.3572   29.5362   29.6328   29.7120   29.8476   29.8867   29.8875
   30.0912   30.1507   30.1536   30.2270   30.2874   30.4639   30.4860   30.5781   30.5926   30.7113
   30.8277   30.8891   30.9161   30.9585   31.0496   31.1419   31.3435   31.4716   31.5280   31.5642
   31.6502   31.8354   31.9161   31.9702   32.0221   32.1636   32.3902   32.4935   32.5492   32.6104
   32.7070   32.7773   32.8412   32.8602   32.9526   32.9836   33.3142   33.3912   33.5276   33.6317
   33.6817   33.7691   33.7979   33.8582   33.9802   33.9942   34.0409   34.1772   34.4138   34.4571
   34.4699   34.6274   34.8294   34.8803   34.9963   35.0570   35.1219   35.1987   35.3813   35.5005
   35.6961   35.8765   35.9544   36.0611   36.0856   36.1638   36.3522   36.3990   36.5660   36.6738
   36.7305   36.8317   36.9435   37.0315   37.1127   37.2193   37.2300   37.3303   37.5550   37.6700
   37.7567   38.0766   38.1392   38.1744   38.4816   38.7155   38.8584   38.8677   39.1621   39.1809
   39.2934   39.4293   39.5706   39.6529   39.8305   39.9833   40.0157   40.1470   40.2385   40.2702
   40.4646   40.5248   40.6435   40.8257   40.8924   41.0220   41.2157   41.4280   41.4420   41.5417
   41.5766   41.7370   41.8359   41.8859   42.1223   42.2038   42.3022   42.3874   42.4830   42.7292
   42.7581   42.8223   42.8264   43.0842   43.2136   43.2426   43.4703   43.5693   43.6972   43.7996
   43.8427   43.9392   44.1016   44.1864   44.1903   44.3377   44.5681   44.6677   44.8080   44.8323
   45.0506   45.1086   45.2156   45.2562   45.4440   45.5045   45.7614   45.9519   45.9536   45.9693
   46.1381   46.2048   46.3949   46.4033   46.5578   46.7412   46.9281   46.9861   47.0810   47.2100
   47.4726   47.5292   47.6526   47.8307   47.9417   48.1662   48.2724   48.4169   48.4543   48.5932
   49.0957   49.1400   49.6837   49.7302   49.7731   49.7834   49.8720   49.8869   50.3085   50.3542
   50.4729   50.7102   50.9040   51.1249   51.1786   51.2461   51.2979   51.3403   51.6280   51.6983
   51.9131   52.1138   52.1639   52.3240   52.5446   52.6766   52.7788   53.0180   53.0979   53.2376
   53.3573   53.5029   53.8212   53.9419   53.9736   54.4040   54.4888   54.7462   54.7789   54.9523
   55.2601   55.4560   55.9041   56.1810   56.3565   56.4296   56.8408   57.0398   57.3029   57.5672
   57.9963   58.1741   58.3177   58.3614   58.9133   59.1153   59.1651   59.1992   59.2760   59.3269
   59.5895   60.0991   60.3012   60.6566   60.7881   61.1921   61.3367   61.7235   61.7739   62.1214
   62.1386   62.3719   62.4545   62.7798   63.1042   63.2415   63.6899   63.7360   64.2783   64.5761
   65.0880   65.3338   65.4932   65.6520   65.8431   65.9064   66.0542   66.3101   66.8529   67.2375
   67.4609   67.4795   67.5056   67.8107   67.9742   68.0080   68.0730   68.2616   68.3673   68.7492
   69.1857   69.5015   69.5172   69.6446   69.6822   70.3777   70.4576   70.5925   70.9794   71.1658
   71.2563   71.8072   72.0277   72.1508   72.4894   73.2397   73.4414   73.4714   73.7002   73.7839
   74.0945   74.1283   74.7875   75.6267   77.3058   78.2142   79.5957   80.0746   81.2278   83.8680
   85.8825   85.8955   88.5570   95.8808   98.0905
siesta: Fermi energy =      -3.617065 eV

siesta: PDOS info
siesta: E1 -- E2, sigma [eV], nhist:  -10.000 --   10.000    0.200 500

siesta: Program's energy decomposition (eV):
siesta: Ebs     =     -4652.831385
siesta: Eions   =     20397.662598
siesta: Ena     =      4134.289755
siesta: Ekin    =      8775.459975
siesta: Enl     =     -1336.538386
siesta: Eso     =         0.000000
siesta: Edftu   =         0.000000
siesta: DEna    =        62.012239
siesta: DUscf   =        19.299918
siesta: DUext   =         0.000000
siesta: Exc     =     -4636.709364
siesta: eta*DQ  =         0.000000
siesta: Emadel  =         0.000000
siesta: Emeta   =         0.000000
siesta: Emolmec =         0.000000
siesta: Ekinion =        11.188153
siesta: Eharris =    -13368.660308
siesta: Etot    =    -13368.660308
siesta: FreeEng =    -13368.660311

siesta: Final energy (eV):
siesta:  Band Struct. =   -4652.831385
siesta:       Kinetic =    8775.459975
siesta:       Hartree =   69525.746911
siesta:       Edftu   =       0.000000
siesta:       Eso     =       0.000000
siesta:    Ext. field =       0.000000
siesta:   Exch.-corr. =   -4636.709364
siesta:  Ion-electron = -147078.951989
siesta:       Ion-ion =   60034.606006
siesta:       Ekinion =      11.188153
siesta:         Total =  -13368.660308
siesta:         Fermi =      -3.617065

siesta: Atomic forces (eV/Ang):
siesta:      1    0.490964   -0.727266   -0.253133
siesta:      2   -0.543859    1.648906   -0.182148
siesta:      3    0.779458   -0.583393   -0.202041
siesta:      4   -1.132218   -1.550727   -1.142694
siesta:      5   -0.368505   -1.540974    2.181271
siesta:      6    0.195788   -2.989012   -3.282134
siesta:      7   -2.256855   -0.163344   -2.220307
siesta:      8    1.224122   -2.033662   -1.043598
siesta:      9   -1.921146    1.233296    1.543616
siesta:     10   -1.541380   -0.024015    0.802627
siesta:     11    0.984167    0.323430    0.101675
siesta:     12    0.083713   -0.444851    1.276694
siesta:     13   -0.931370    1.956232   -0.431828
siesta:     14    0.716580    1.635097    3.013547
siesta:     15    1.365363    3.644419   -0.012758
siesta:     16   -0.813920    2.738746   -0.320747
siesta:     17    0.447815   -0.234239   -0.161148
siesta:     18   -2.015567    3.639400    1.065015
siesta:     19    1.256007   -0.794621    0.625493
siesta:     20    1.237506   -0.533650    0.733132
siesta:     21    0.156277    1.142413   -2.442645
siesta:     22   -0.194753   -1.926019   -0.517678
siesta:     23    2.282633    3.841718    2.399888
siesta:     24    1.043579   -0.801328   -1.275567
siesta:     25    3.521099    3.266626    1.686609
siesta:     26   -0.330067    1.562759   -0.338476
siesta:     27    0.349882    0.332101   -0.578598
siesta:     28   -0.012900   -0.260170    1.354677
siesta:     29    1.038224    0.976940    0.144590
siesta:     30   -0.343521    1.295678    0.630805
siesta:     31   -0.283828    0.352964    0.242160
siesta:     32   -0.054911   -0.603019    0.959278
siesta:     33    0.948293    0.082821    0.689878
siesta:     34   -0.544266   -0.063688    1.087583
siesta:     35    2.466338   -0.358676   -0.565815
siesta:     36   -0.851942    1.311974    1.306885
siesta:     37    1.113379   -0.922984   -0.099213
siesta:     38   -0.436594   -0.078736    1.259380
siesta:     39    1.538120   -0.151086    0.040094
siesta:     40   -0.500225   -0.125744   -0.069648
siesta:     41    1.148739   -0.084432   -0.974085
siesta:     42    0.532491   -0.132165    1.552925
siesta:     43   -0.033330    0.232174    0.240046
siesta:     44    0.239976   -0.175498    0.195239
siesta:     45   -0.667196    0.317358    0.323621
siesta:     46    0.189215   -0.426854    0.584867
siesta:     47   -0.366680    0.382017    0.119634
siesta:     48    0.791925    0.705243   -0.409360
siesta:     49   -0.311049    0.401062    0.168941
siesta:     50   -0.307415    0.014439    0.195002
siesta:     51    0.216621    0.043611    0.713440
siesta:     52   -0.555221    0.425235    0.074954
siesta:     53    0.262795   -0.025235    0.520667
siesta:     54    0.506120   -0.037549   -0.975038
siesta:     55    0.484813    0.134044    0.548201
siesta:     56   -0.553932   -0.894007    0.617565
siesta:     57    0.190670    0.714991    0.078655
siesta:     58    0.572624   -1.657831   -0.095904
siesta:     59    1.290001    0.533826   -0.867900
siesta:     60    0.496135   -0.624863   -1.023459
siesta:     61    0.572207   -0.008622    0.037978
siesta:     62   -0.515369   -0.128186    0.182939
siesta:     63   -0.571781    0.981928   -1.124669
siesta:     64   -0.395340   -0.206782    0.063288
siesta:     65    0.825040    0.151988    0.705480
siesta:     66    0.294599   -0.278970    0.229524
siesta:     67    0.231924   -1.270849   -0.116652
siesta:     68    0.758711    0.535690   -0.925061
siesta:     69   -0.251429   -1.536147   -0.917077
siesta:     70   -0.425357    0.051367    0.319014
siesta:     71    0.225244   -1.942959    0.448427
siesta:     72    0.840681    0.410516   -0.998720
siesta:     73   -1.026572    0.029059    0.564737
siesta:     74    0.280881   -0.444357    0.396739
siesta:     75   -0.309831    0.870902    0.243913
siesta:     76   -0.505642    0.254866    0.040842
siesta:     77    0.390155   -0.030470   -0.519315
siesta:     78   -0.412292    0.333129    0.125684
siesta:     79    0.498626   -0.900612   -0.259378
siesta:     80   -0.648100   -0.732746    1.070463
siesta:     81    0.131839    1.166885    1.002201
siesta:     82   -0.457247   -0.134723   -0.385137
siesta:     83    0.086285    1.615806   -0.309182
siesta:     84   -0.491627   -0.427470    0.305937
siesta:     85    0.026363    0.119508   -0.536381
siesta:     86   -0.487893   -0.127207   -0.225675
siesta:     87    0.081019   -0.162694    0.021309
siesta:     88    0.107184   -0.282406    0.406244
siesta:     89   -0.243280   -0.362499   -0.392929
siesta:     90   -0.486172   -0.672286    0.675156
siesta:     91   -0.647178   -0.529394   -0.432278
siesta:     92    0.169653    0.333498    0.015764
siesta:     93   -0.049535   -0.444706   -0.047719
siesta:     94    0.416369    0.018036   -0.220090
siesta:     95   -0.138819   -0.521670   -0.535662
siesta:     96    0.115296    1.043274   -0.944502
siesta:     97   -0.828876    0.128821   -0.229718
siesta:     98   -0.331238   -0.088220   -0.780381
siesta:     99   -0.054493    0.178223   -0.630050
siesta:    100    0.257419    0.123234    0.481161
siesta:    101   -1.288416   -0.043787   -1.210279
siesta:    102    0.408434   -0.137394   -1.190358
siesta:    103   -0.144548    0.382814   -0.054431
siesta:    104   -0.222391   -0.127257    0.452195
siesta:    105   -0.684505   -0.339400   -0.283714
siesta:    106    0.106149   -0.012008   -0.505945
siesta:    107   -0.417584   -0.120341   -0.183087
siesta:    108   -0.208192    0.113796    0.261903
siesta:    109   -1.182838   -0.142342   -0.472192
siesta:    110   -0.830082   -0.497677    0.227763
siesta:    111    0.314695   -0.101015   -0.116311
siesta:    112   -0.184140    0.153534    0.840852
siesta:    113    0.001194    0.021607   -0.020815
siesta:    114   -0.366597    0.364624   -0.498729
siesta:    115   -0.367150   -0.104353   -0.400681
siesta:    116    0.200626    0.114587   -0.530697
siesta:    117    0.240488    0.607404    0.417241
siesta:    118   -0.836786    0.685507    0.670291
siesta:    119   -0.454714   -0.419439   -1.538944
siesta:    120    0.052935   -0.009959   -0.125995
siesta:    121   -0.934901   -0.767656   -0.079503
siesta:    122    1.121890    0.845543    0.377462
siesta:    123   -0.101641    0.445729    0.773784
siesta:    124   -0.889982   -0.663519   -0.015117
siesta:    125    0.733063    0.817939   -0.284310
siesta:    126   -0.101548   -0.120208    0.278328
siesta:    127   -0.174497   -0.966349    0.222542
siesta:    128    0.271065    0.221797    0.127242
siesta:    129   -0.064597   -0.970777   -0.390755
siesta:    130   -0.011778    0.128074    0.243934
siesta:    131    1.470393    0.098393    0.361740
siesta:    132    0.013290    0.144693   -0.151259
siesta:    133   -0.104356   -0.008306   -0.431304
siesta:    134    0.050150    0.021403    0.155432
siesta:    135    0.160658   -0.317061   -0.143412
siesta:    136   -0.135380    0.164692   -0.329033
siesta:    137    0.779842    0.807849   -1.984436
siesta:    138    0.357525    0.013523   -0.211389
siesta:    139    0.204771    0.031802   -0.415750
siesta:    140   -1.106168    0.237446   -0.051245
siesta:    141    0.213145    0.920041    0.362022
siesta:    142    0.005526   -1.286970   -0.269626
siesta:    143    1.017603    0.471404    0.041134
siesta:    144   -0.363614    0.391387    0.249832
siesta:    145    1.227965    1.249391    0.382814
siesta:    146   -1.019133   -0.489767   -0.130771
siesta:    147   -0.910521   -0.356839   -0.284040
siesta:    148   -0.443928    0.481529    0.165761
siesta:    149    0.166220    0.490503   -0.302167
siesta:    150    0.219648   -0.282277   -0.074012
siesta:    151   -1.091842    0.429077    0.174401
siesta:    152   -0.083012   -0.354677    0.172943
siesta:    153   -1.123000   -0.007812    1.285206
siesta:    154    0.367524   -0.296385    0.719489
siesta:    155    0.642820   -0.207811    0.068141
siesta:    156    0.053054   -0.109943   -0.173405
siesta:    157   -0.180424    0.104425   -0.169049
siesta:    158   -0.606634   -1.318317   -0.142737
siesta:    159    0.210709   -1.122408   -0.081811
siesta:    160    1.492136   -0.019267    0.149591
siesta: ----------------------------------------
siesta:    Tot    4.788821   10.271827    2.333696

siesta: Stress tensor (static) (eV/Ang**3):
siesta:     0.000540   -0.000063   -0.000189
siesta:    -0.000063    0.000117   -0.000017
siesta:    -0.000189   -0.000017    0.000164

siesta: Cell volume =      42473.227560 Ang**3

siesta: Pressure (static):
siesta:                Solid            Molecule  Units
siesta:          -0.00000298          0.00000597  Ry/Bohr**3
siesta:          -0.00027374          0.00054816  eV/Ang**3
siesta:          -0.43857996          0.87825597  kBar
(Free)E+ p_basis*V_orbitals  =      -13347.497828
(Free)Eharris+ p_basis*V_orbitals  =      -13347.497828
     spin moment: S , {S} =    0.00000       0.0       0.0   0.00000

siesta: Electric dipole (a.u.)  =   13.785828   -1.346507    6.380641
siesta: Electric dipole (Debye) =   35.040103   -3.422482   16.217983

cite: Please see "siesta.bib" for an exhaustive BiBTeX file.
cite: This calculation has made use of the following articles.
cite: Articles are encouraged to be cited in a published work.
        Primary SIESTA paper
          DOI: www.doi.org/10.1088/0953-8984/14/11/302


timer: Elapsed wall time (sec) =    2399.512
timer: CPU execution times (sec):

Routine            Calls   Time/call    Tot.time        %
siesta                 1    2398.759    2398.759   100.00
Setup                  1       0.363       0.363     0.02
bands                  3      92.790     278.369    11.60
KSV_init               1       0.000       0.000     0.00
IterGeom              10     173.188    1731.880    72.20
state_init            10       0.316       3.158     0.13
hsparse               10       0.025       0.253     0.01
overlap               10       0.243       2.426     0.10
Setup_H0              10       6.275      62.748     2.62
naefs                 20       0.002       0.033     0.00
MolMec                20       0.000       0.000     0.00
kinefsm               20       0.157       3.142     0.13
nlefsm                20       1.128      22.562     0.94
DHSCF_Init            10       4.301      43.006     1.79
DHSCF1                10       0.040       0.403     0.02
INITMESH              10       0.000       0.000     0.00
DHSCF2                10       4.260      42.601     1.78
REMESH                10       0.385       3.852     0.16
REORD                942       0.021      19.780     0.82
PHION                 10       2.315      23.147     0.96
COMM_BSC            1566       0.017      27.134     1.13
POISON               201       1.074     215.800     9.00
fft                  402       0.424     170.349     7.10
IterSCF              170       9.254    1573.215    65.58
setup_H              180       3.961     712.927    29.72
DHSCF                191       4.184     799.051    33.31
DHSCF3               191       3.938     752.171    31.36
rhoofd               191       0.791     150.992     6.29
XC                   191       0.732     139.895     5.83
GXC-CellXC           191       0.519      99.130     4.13
cellXC               191       0.519      99.128     4.13
vmat                 190       0.670     127.376     5.31
compute_dm           170       5.043     857.383    35.74
diagon               170       5.041     856.927    35.72
r-eigvec             340       2.263     769.469    32.08
r-buildHS            340       0.003       0.885     0.04
rdiag                342       2.263     774.072    32.27
rdiag1               342       0.069      23.736     0.99
rdiag2               342       0.142      48.715     2.03
rdiag3               342       1.360     465.193    19.39
rdiag4               342       0.687     235.105     9.80
r-buildD             170       0.501      85.240     3.55
MIXER                160       0.008       1.321     0.06
PostSCF               10       9.263      92.634     3.86
DHSCF4                10       4.688      46.878     1.95
dfscf                 10       3.893      38.933     1.62
overfsm               10       0.079       0.794     0.03
state_analysis        10       0.006       0.063     0.00
siesta_move           10       0.004       0.038     0.00
Analysis               1     666.508     666.508    27.79
c-eigval             152       1.830     278.175    11.60
c-buildHS            152       0.011       1.697     0.07
cdiag                152       1.819     276.477    11.53
cdiag1               152       0.306      46.511     1.94
cdiag2               152       0.571      86.794     3.62
cdiag3               152       0.942     143.169     5.97
pdos                   1     384.110     384.110    16.01
optical                1       0.000       0.000     0.00
  

>> End of run:  15-DEC-2020  14:32:34
Job completed
