Siesta Version  : master-post-4.1-266
Architecture    : unknown
Compiler version: GNU Fortran (Ubuntu 9.3.0-17ubuntu1~20.04) 9.3.0
Compiler flags  : gfortran -O2 -fPIC -ftree-vectorize
PP flags        : -DFC_HAVE_ABORT -DSIESTA__DIAG_2STAGE -DSIESTA__MRRR
Libraries       : libsiestaLAPACK.a libsiestaBLAS.a
Directory       : /home/colinw/siesta/mixture_simulations/Mixture9
SERIAL version

* Running in serial mode
>> Start of run:  14-DEC-2020   9:05:02

                           ***********************       
                           *  WELCOME TO SIESTA  *       
                           ***********************       

reinit: Reading from standard input
reinit: Dumped input in INPUT_TMP.21585
************************** Dump of input data file ****************************
NumberOfAtoms 228
SpinPolarized yes
#FixSpin .true.
#TotalSpin
NumberOfSpecies 4
MD.TypeOfRun  nose
MD.FinalTimeStep 10
MD.LengthTimeStep 1.0  fs
MD.InitialTemperature 300 K
MD.TargetTemperature  300  K
%block ChemicalSpeciesLabel
1  6  C
2  7  N
3  1  H
4  8  O
%endblock ChemicalSpeciesLabel
PAO.BasisSize dzp
 PAO.EnergyShift 0.02 Ry
MeshCutoff          100 Ry
MaxSCFIterations    100
DM.NumberPulay       3
DM.Tolerance         1e-3
WriteDenchar	.true.
%block ProjectedDensityOfStates
-10.0 10.0 0.200 500 eV
%endblock ProjectedDensityOfStates
NetCharge 0.00
%block BandLines
1  1.000  1.000 1.000  L
20 0.00   0.00   0.00  \Gamma
25 2.00   0.000  0.00  X
30 2.00   2.00   2.00  \Gamma
%endblock BandLines
LongOutput .true.
WriteCoorXmol .true.
LatticeConstant 1 Ang
%block LatticeVectors
  37.855872 0.0 0.0
  0.0 31.887851 0.0
  0.0 0.0 27.326383
%endblock LatticeVectors
#UseSaveData .true.
%block kgrid_Monkhorst_Pack
1 0 0 0.0
 0 1 0 0.0
 0 0 1 0.0
%endblock kgrid_Monkhorst_Pack
WriteMDXmol .true.
AtomicCoordinatesFormat Ang
%block AtomicCoordinatesAndAtomicSpecies
6.625655  27.250387 20.095008  1
6.788211  26.474729 18.798025  1
6.881684  27.411415 17.593151  1
7.028221  26.671607 16.260489  1
8.328272  25.916097 16.073256  1
8.315872  24.553408 16.421224  1
9.432193  23.696983 16.376148  1
10.656053  24.234767 15.917049  1
10.666101  25.612098 15.550248  1
9.532426  26.463041 15.617053  1
9.701028  27.924673 15.255909  1
8.949689  28.406704 14.018843  1
11.797910  23.412540 15.840170  1
12.965134  23.918847 15.394217  2
14.024066  23.086659 15.321948  1
15.340723  23.366757 14.884631  1
16.068377  22.200956 14.985497  1
15.232283  21.228019 15.471464  2
15.497879  20.268160 15.643848  3
13.977406  21.747546 15.686638  1
12.781889  21.188126 16.166629  1
12.685551  19.839117 16.555765  1
11.468755  19.344586 17.023733  1
10.348553  20.180188 17.107113  1
9.124435  19.698664 17.586204  1
8.055982  20.573233 17.676665  1
6.703140  20.105272 18.180316  1
5.843590  21.160438 18.925018  1
5.414022  22.336871 18.049265  1
4.569249  20.521231 19.482590  1
8.161530  21.849584 17.253300  2
9.328517  22.352546 16.784019  1
10.450968  21.536573 16.708162  1
11.677778  22.060382 16.234113  1
6.437919  26.561460 20.924337  3
5.788270  27.952691 20.037712  3
7.534903  27.815830 20.323176  3
5.934722  25.798293 18.672026  3
7.688052  25.856476 18.876170  3
7.703297  28.122674 17.730602  3
5.958039  28.004167 17.544225  3
6.879742  27.386737 15.455260  3
6.185582  25.976282 16.140714  3
7.370003  24.144867 16.759149  3
11.613864  26.036822 15.210162  3
10.764848  28.131554 15.080223  3
9.428097  28.534532 16.124350  3
9.290580  27.888743 13.118214  3
9.116162  29.480881 13.883746  3
7.870561  28.270693 14.075704  3
15.706725  24.320886 14.533452  3
17.101807  21.980381 14.754301  3
13.539253  19.170883 16.504244  3
11.406165  18.301581 17.326963  3
9.013222  18.662523 17.889329  3
6.873414  19.270429 18.874837  3
6.144688  19.696559 17.329083  3
6.425724  21.554655 19.768302  3
4.970351  22.002815 17.106503  3
6.258534  22.975538 17.829240  3
4.701787  22.987605 18.565168  3
3.969619  20.075875 18.681091  3
3.948722  21.275207 19.981577  3
4.801996  19.744601 20.215784  3
4.647569  17.246534 9.802384  1
4.992628  15.987429 9.505070  1
4.792161  14.828239 10.472076  1
3.617409  14.669078 11.435634  1
3.553757  15.646154 12.498376  1
4.842243  15.668821 13.244360  1
4.719167  16.886656 14.250626  1
4.314926  18.447549 13.392898  1
2.921260  18.817918 12.839613  1
1.564270  18.573368 13.571118  1
1.136963  17.194862 14.165848  1
1.670142  16.676205 15.540022  1
3.126681  16.412884 15.684419  1
4.222097  18.004384 15.647636  1
5.971702  18.268474 14.990016  1
6.730978  19.434084 14.264268  1
8.145935  19.040686 13.786429  1
5.754730  15.804471 8.337358  4
5.820951  14.514426 7.695379  1
4.738691  14.380969 6.572200  1
4.838903  15.135851 5.238919  1
7.237677  14.174649 7.151276  1
8.354667  13.930307 8.076132  4
8.396833  12.805558 8.867664  1
7.407625  12.151467 9.163515  4
9.824067  12.532469 9.413241  1
10.634025  11.218255 9.145184  1
10.186878  9.848364 9.712514  1
11.138156  8.671952 9.344491  1
10.734812  7.269264 9.872382  1
9.412596  6.641922 9.414256  1
8.046224  7.348629 9.677686  1
7.213876  7.811141 10.897144  1
7.163210  8.582263 12.019683  1
8.049971  9.419234 12.956225  1
7.812881  10.967234 13.175870  1
8.729488  11.574507 14.303522  1
8.508410  13.073875 14.580220  1
9.483363  13.683266 15.614461  1
9.343554  15.193764 15.880004  1
9.716881  16.086470 14.697289  1
8.856035  15.972176 13.453064  1
4.168642  17.502657 10.722552  3
4.889002  18.100118 9.183330  3
5.717856  14.777153 11.055872  3
4.691433  13.901845 9.934326  3
3.748844  13.724080 11.980030  3
2.648235  14.656270 10.942943  3
2.695350  15.402954 13.114112  3
3.305680  16.615332 12.113599  3
5.717111  15.962493 12.659306  3
5.052550  14.770130 13.851238  3
5.672178  16.341436 14.789097  3
4.875343  16.517641 15.416166  3
5.058723  18.670462 12.635551  3
4.389772  19.410932 14.087432  3
2.903333  18.338627 11.886795  3
2.964142  19.902330 12.555156  3
0.833596  18.772400 12.771337  3
1.376172  19.343740 14.331357  3
1.180949  16.460914 13.358215  3
0.057402  17.253208 14.359326  3
1.211406  15.691249 15.755275  3
1.532292  17.388024 16.323108  3
3.210032  15.655164 14.880001  3
3.514933  15.736808 16.450177  3
3.977769  18.733364 16.461362  3
3.292627  18.302572 14.960724  3
6.242257  17.689759 13.952683  3
6.694235  17.643132 15.534591  3
6.707740  20.184675 15.012169  3
6.344334  19.810372 13.303014  3
8.771308  18.840553 14.648360  3
8.572620  19.844007 13.182841  3
8.155148  18.194075 13.097582  3
5.600883  13.730891 8.407913  3
3.757653  14.617548 7.000000  3
4.714118  13.319302 6.296909  3
4.978939  16.215633 5.330909  3
3.895177  14.990542 4.688189  3
5.625969  14.728615 4.594133  3
7.572655  14.994428 6.505769  3
7.160400  13.279389 6.525252  3
9.802757  12.739763 10.488932  3
10.451182  13.327143 8.980993  3
11.629321  11.400046 9.576900  3
10.784389  11.109638 8.066028  3
9.204187  9.643766 9.308953  3
10.113786  9.889055 10.802666  3
12.139056  8.884599 9.754614  3
11.283460  8.620895 8.256732  3
10.767539  7.249193 10.963458  3
11.536085  6.577831 9.545614  3
9.378887  5.593030 9.755017  3
9.492348  6.525700 8.314931  3
7.355267  6.634698 9.182139  3
8.004989  8.185521 8.982052  3
6.199636  7.421369 10.695838  3
6.151492  8.581740 12.453425  3
9.101263  9.239670 12.737275  3
7.863315  8.983677 13.951085  3
6.767059  11.173941 13.443753  3
8.009051  11.498883 12.236759  3
9.775862  11.445452 13.999110  3
8.584361  11.047537 15.248995  3
7.480450  13.292603 14.888379  3
8.649953  13.515807 13.611564  3
10.523192  13.486134 15.325805  3
9.317764  13.172939 16.570331  3
10.023727  15.464852 16.707263  3
8.339420  15.433650 16.250649  3
10.760013  15.917180 14.418891  3
9.674797  17.120207 15.050966  3
8.909863  15.040513 12.916428  3
9.229614  16.653505 12.687891  3
7.804919  16.162133 13.678960  3
28.958784  27.000289 6.055569  1
27.773510  26.610031 5.155819  1
27.908197  27.341915 3.816526  1
27.729491  25.080029 4.966799  1
27.592713  24.244789 6.166708  2
26.628073  24.091979 7.110199  1
26.695436  23.083232 7.819718  4
25.437314  25.063718 7.225816  1
25.128747  25.384462 8.714382  1
26.317401  26.099784 9.370853  1
23.876916  26.257777 8.891067  1
24.317211  24.379781 6.581289  2
23.986538  24.369164 5.255481  1
23.256397  23.470150 4.846285  4
24.597431  25.418961 4.296719  1
23.500830  25.938832 3.324461  1
22.377063  26.660029 4.076502  1
24.069355  26.886369 2.260237  1
25.629958  24.705825 3.545014  2
26.932714  24.446984 3.806174  1
27.469389  23.577022 3.108899  4
28.991867  28.084345 6.208692  3
29.913274  26.698880 5.608601  3
28.882569  26.529879 7.041052  3
26.876456  26.993781 5.636393  3
28.780879  26.992418 3.255239  3
28.016934  28.420727 3.973462  3
27.020988  27.193866 3.195169  3
28.763813  24.847381 4.659497  3
28.212375  23.439303 6.177086  3
25.639029  25.993881 6.715911  3
24.954041  24.449840 9.262996  3
26.498867  27.076112 8.908056  3
27.235056  25.509836 9.291318  3
26.127827  26.262638 10.437530  3
23.912324  27.152549 8.260264  3
23.781605  26.591303 9.931994  3
22.965685  25.702005 8.648599  3
23.973377  23.547549 7.053426  3
25.033757  26.258665 4.828608  3
23.052922  25.087316 2.793888  3
22.754176  27.545838 4.597954  3
21.899628  26.006439 4.812524  3
21.596674  26.985110 3.379119  3
24.588784  27.734362 2.718131  3
23.266246  27.286498 1.630430  3
24.770864  26.369234 1.597954  3
25.276979  24.048589 2.854749  3
 %endblock AtomicCoordinatesAndAtomicSpecies
************************** End of input data file *****************************

reinit: -----------------------------------------------------------------------
reinit: System Name: 
reinit: -----------------------------------------------------------------------
reinit: System Label: siesta
reinit: -----------------------------------------------------------------------

initatom: Reading input for the pseudopotentials and atomic orbitals ----------
Species number:   1 Atomic number:    6 Label: C
Species number:   2 Atomic number:    7 Label: N
Species number:   3 Atomic number:    1 Label: H
Species number:   4 Atomic number:    8 Label: O

Ground state valence configuration:   2s02  2p02
Reading pseudopotential information in formatted form from C.psf

Valence configuration for pseudopotential generation:
2s( 2.00) rc: 1.54
2p( 2.00) rc: 1.54
3d( 0.00) rc: 1.54
4f( 0.00) rc: 1.54
Ground state valence configuration:   2s02  2p03
Reading pseudopotential information in formatted form from N.psf

Valence configuration for pseudopotential generation:
2s( 2.00) rc: 1.48
2p( 3.00) rc: 1.48
3d( 0.00) rc: 1.48
4f( 0.00) rc: 1.48
Ground state valence configuration:   1s01
Reading pseudopotential information in formatted form from H.psf

Valence configuration for pseudopotential generation:
1s( 1.00) rc: 1.31
2p( 0.00) rc: 1.31
3d( 0.00) rc: 0.37
4f( 0.00) rc: 1.31
Ground state valence configuration:   2s02  2p04
Reading pseudopotential information in formatted form from O.psf

Valence configuration for pseudopotential generation:
2s( 2.00) rc: 1.47
2p( 4.00) rc: 1.47
3d( 0.00) rc: 1.47
4f( 0.00) rc: 1.47
For C, standard SIESTA heuristics set lmxkb to 3
 (one more than the basis l, including polarization orbitals).
Use PS.lmax or PS.KBprojectors blocks to override.
For N, standard SIESTA heuristics set lmxkb to 3
 (one more than the basis l, including polarization orbitals).
Use PS.lmax or PS.KBprojectors blocks to override.
For H, standard SIESTA heuristics set lmxkb to 2
 (one more than the basis l, including polarization orbitals).
Use PS.lmax or PS.KBprojectors blocks to override.
For O, standard SIESTA heuristics set lmxkb to 3
 (one more than the basis l, including polarization orbitals).
Use PS.lmax or PS.KBprojectors blocks to override.

<basis_specs>
===============================================================================
C                    Z=   6    Mass=  12.010        Charge= 0.17977+309
Lmxo=1 Lmxkb= 3    BasisType=split      Semic=F
L=0  Nsemic=0  Cnfigmx=2
          i=1  nzeta=2  polorb=0  (2s)
            splnorm:   0.15000    
               vcte:    0.0000    
               rinn:    0.0000    
               qcoe:    0.0000    
               qyuk:    0.0000    
               qwid:   0.10000E-01
                rcs:    0.0000      0.0000    
            lambdas:    1.0000      1.0000    
L=1  Nsemic=0  Cnfigmx=2
          i=1  nzeta=2  polorb=1  (2p)
            splnorm:   0.15000    
               vcte:    0.0000    
               rinn:    0.0000    
               qcoe:    0.0000    
               qyuk:    0.0000    
               qwid:   0.10000E-01
                rcs:    0.0000      0.0000    
            lambdas:    1.0000      1.0000    
-------------------------------------------------------------------------------
L=0  Nkbl=1  erefs: 0.17977+309
L=1  Nkbl=1  erefs: 0.17977+309
L=2  Nkbl=1  erefs: 0.17977+309
L=3  Nkbl=1  erefs: 0.17977+309
===============================================================================
</basis_specs>

atom: Called for C                     (Z =   6)

read_vps: Pseudopotential generation method:
read_vps: ATM3      Troullier-Martins                       
Valence charge for ps generation:    4.00000

read_vps: Pseudopotential includes a core correction:
read_vps: Pseudo-core for xc-correction

xc_check: Exchange-correlation functional:
xc_check: Ceperley-Alder
xc_check: WARNING: Pseudopotential generated with GGA PBE functional
V l=0 = -2*Zval/r beyond r=  1.5227
V l=1 = -2*Zval/r beyond r=  1.5227
V l=2 = -2*Zval/r beyond r=  1.5227
V l=3 = -2*Zval/r beyond r=  1.5038
All V_l potentials equal beyond r=  1.5227
This should be close to max(r_c) in ps generation
All pots = -2*Zval/r beyond r=  1.5227

VLOCAL1: 99.0% of the norm of Vloc inside     18.722 Ry
VLOCAL1: 99.9% of the norm of Vloc inside     42.668 Ry
atom: Maximum radius for 4*pi*r*r*local-pseudopot. charge    1.83678
atom: Maximum radius for r*vlocal+2*Zval:    1.58088

KBgen: Kleinman-Bylander projectors: 
GHOST: No ghost state for L =  0
   l= 0   rc=  1.704034   el= -0.998584   Ekb=  5.327875   kbcos=  0.314897
GHOST: No ghost state for L =  1
   l= 1   rc=  1.704034   el= -0.383998   Ekb= -3.785479   kbcos= -0.363289
GHOST: No ghost state for L =  2
   l= 2   rc=  1.791422   el=  0.002326   Ekb= -0.971263   kbcos= -0.009325
GHOST: No ghost state for L =  3
   l= 3   rc=  1.859892   el=  0.003420   Ekb= -0.399672   kbcos= -0.001232

KBgen: Total number of  Kleinman-Bylander projectors:   16
atom: -------------------------------------------------------------------------

atom: SANKEY-TYPE ORBITALS:
atom: Selected multiple-zeta basis: split     

SPLIT: Orbitals with angular momentum L= 0

SPLIT: Basis orbitals for state 2s

SPLIT: PAO cut-off radius determined from an
SPLIT: energy shift=  0.020000 Ry

   izeta = 1
                 lambda =    1.000000
                     rc =    4.191849
                 energy =   -0.980459
                kinetic =    0.881507
    potential(screened) =   -1.861966
       potential(ionic) =   -5.449625

   izeta = 2
                 rmatch =    3.431921
              splitnorm =    0.150000
                 energy =   -0.849396
                kinetic =    1.300036
    potential(screened) =   -2.149433
       potential(ionic) =   -5.962781

SPLIT: Orbitals with angular momentum L= 1

SPLIT: Basis orbitals for state 2p

SPLIT: PAO cut-off radius determined from an
SPLIT: energy shift=  0.020000 Ry

   izeta = 1
                 lambda =    1.000000
                     rc =    4.993604
                 energy =   -0.366127
                kinetic =    2.463190
    potential(screened) =   -2.829316
       potential(ionic) =   -6.291180

   izeta = 2
                 rmatch =    3.518811
              splitnorm =    0.150000
                 energy =   -0.204163
                kinetic =    3.723883
    potential(screened) =   -3.928045
       potential(ionic) =   -7.766545

POLgen: Perturbative polarization orbital with L=  2

POLgen: Polarization orbital for state 2p

   izeta = 1
                     rc =    4.993604
                 energy =    1.232619
                kinetic =    2.527283
    potential(screened) =   -1.294664
       potential(ionic) =   -4.203101
atom: Total number of Sankey-type orbitals: 13

atm_pop: Valence configuration (for local Pseudopot. screening):
 2s( 2.00)                                                            
 2p( 2.00)                                                            
Vna: chval, zval:    4.00000   4.00000

Vna:  Cut-off radius for the neutral-atom potential:   4.993604
comcore: Pseudo-core radius Rcore=  1.791422

atom: _________________________________________________________________________

<basis_specs>
===============================================================================
N                    Z=   7    Mass=  14.010        Charge= 0.17977+309
Lmxo=1 Lmxkb= 3    BasisType=split      Semic=F
L=0  Nsemic=0  Cnfigmx=2
          i=1  nzeta=2  polorb=0  (2s)
            splnorm:   0.15000    
               vcte:    0.0000    
               rinn:    0.0000    
               qcoe:    0.0000    
               qyuk:    0.0000    
               qwid:   0.10000E-01
                rcs:    0.0000      0.0000    
            lambdas:    1.0000      1.0000    
L=1  Nsemic=0  Cnfigmx=2
          i=1  nzeta=2  polorb=1  (2p)
            splnorm:   0.15000    
               vcte:    0.0000    
               rinn:    0.0000    
               qcoe:    0.0000    
               qyuk:    0.0000    
               qwid:   0.10000E-01
                rcs:    0.0000      0.0000    
            lambdas:    1.0000      1.0000    
-------------------------------------------------------------------------------
L=0  Nkbl=1  erefs: 0.17977+309
L=1  Nkbl=1  erefs: 0.17977+309
L=2  Nkbl=1  erefs: 0.17977+309
L=3  Nkbl=1  erefs: 0.17977+309
===============================================================================
</basis_specs>

atom: Called for N                     (Z =   7)

read_vps: Pseudopotential generation method:
read_vps: ATM3      Troullier-Martins                       
Valence charge for ps generation:    5.00000

read_vps: Pseudopotential includes a core correction:
read_vps: Pseudo-core for xc-correction

xc_check: Exchange-correlation functional:
xc_check: Ceperley-Alder
xc_check: WARNING: Pseudopotential generated with GGA PBE functional
V l=0 = -2*Zval/r beyond r=  1.4606
V l=1 = -2*Zval/r beyond r=  1.4606
V l=2 = -2*Zval/r beyond r=  1.4606
V l=3 = -2*Zval/r beyond r=  1.4606
All V_l potentials equal beyond r=  1.4606
This should be close to max(r_c) in ps generation
All pots = -2*Zval/r beyond r=  1.4606

VLOCAL1: 99.0% of the norm of Vloc inside     20.347 Ry
VLOCAL1: 99.9% of the norm of Vloc inside     46.372 Ry
atom: Maximum radius for 4*pi*r*r*local-pseudopot. charge    1.76189
atom: Maximum radius for r*vlocal+2*Zval:    1.53550

KBgen: Kleinman-Bylander projectors: 
GHOST: No ghost state for L =  0
   l= 0   rc=  1.634559   el= -1.348537   Ekb=  5.297520   kbcos=  0.333054
GHOST: No ghost state for L =  1
   l= 1   rc=  1.614250   el= -0.512415   Ekb= -5.262296   kbcos= -0.428933
GHOST: No ghost state for L =  2
   l= 2   rc=  1.718383   el=  0.002346   Ekb= -1.271998   kbcos= -0.007619
GHOST: No ghost state for L =  3
   l= 3   rc=  1.761893   el=  0.003449   Ekb= -0.494630   kbcos= -0.001017

KBgen: Total number of  Kleinman-Bylander projectors:   16
atom: -------------------------------------------------------------------------

atom: SANKEY-TYPE ORBITALS:
atom: Selected multiple-zeta basis: split     

SPLIT: Orbitals with angular momentum L= 0

SPLIT: Basis orbitals for state 2s

SPLIT: PAO cut-off radius determined from an
SPLIT: energy shift=  0.020000 Ry

   izeta = 1
                 lambda =    1.000000
                     rc =    3.683980
                 energy =   -1.330014
                kinetic =    1.203086
    potential(screened) =   -2.533100
       potential(ionic) =   -8.093205

   izeta = 2
                 rmatch =    2.905100
              splitnorm =    0.150000
                 energy =   -1.134717
                kinetic =    1.810562
    potential(screened) =   -2.945280
       potential(ionic) =   -8.899916

SPLIT: Orbitals with angular momentum L= 1

SPLIT: Basis orbitals for state 2p

SPLIT: PAO cut-off radius determined from an
SPLIT: energy shift=  0.020000 Ry

   izeta = 1
                 lambda =    1.000000
                     rc =    4.388595
                 energy =   -0.493943
                kinetic =    3.501321
    potential(screened) =   -3.995264
       potential(ionic) =   -9.374806

   izeta = 2
                 rmatch =    2.978652
              splitnorm =    0.150000
                 energy =   -0.289183
                kinetic =    5.180785
    potential(screened) =   -5.469968
       potential(ionic) =  -11.438899

POLgen: Perturbative polarization orbital with L=  2

POLgen: Polarization orbital for state 2p

   izeta = 1
                     rc =    4.388595
                 energy =    1.759924
                kinetic =    3.542120
    potential(screened) =   -1.782196
       potential(ionic) =   -6.226799
atom: Total number of Sankey-type orbitals: 13

atm_pop: Valence configuration (for local Pseudopot. screening):
 2s( 2.00)                                                            
 2p( 3.00)                                                            
Vna: chval, zval:    5.00000   5.00000

Vna:  Cut-off radius for the neutral-atom potential:   4.388595
comcore: Pseudo-core radius Rcore=  1.554824

atom: _________________________________________________________________________

<basis_specs>
===============================================================================
H                    Z=   1    Mass=  1.0100        Charge= 0.17977+309
Lmxo=0 Lmxkb= 2    BasisType=split      Semic=F
L=0  Nsemic=0  Cnfigmx=1
          i=1  nzeta=2  polorb=1  (1s)
            splnorm:   0.15000    
               vcte:    0.0000    
               rinn:    0.0000    
               qcoe:    0.0000    
               qyuk:    0.0000    
               qwid:   0.10000E-01
                rcs:    0.0000      0.0000    
            lambdas:    1.0000      1.0000    
-------------------------------------------------------------------------------
L=0  Nkbl=1  erefs: 0.17977+309
L=1  Nkbl=1  erefs: 0.17977+309
L=2  Nkbl=1  erefs: 0.17977+309
===============================================================================
</basis_specs>

atom: Called for H                     (Z =   1)

read_vps: Pseudopotential generation method:
read_vps: ATM3      Troullier-Martins                       
Valence charge for ps generation:    1.00000

xc_check: Exchange-correlation functional:
xc_check: Ceperley-Alder
xc_check: WARNING: Pseudopotential generated with GGA PBE functional
V l=0 = -2*Zval/r beyond r=  1.2977
V l=1 = -2*Zval/r beyond r=  1.2815
V l=2 = -2*Zval/r beyond r=  1.2656
All V_l potentials equal beyond r=  1.2977
This should be close to max(r_c) in ps generation
All pots = -2*Zval/r beyond r=  1.2977

VLOCAL1: 99.0% of the norm of Vloc inside     25.776 Ry
VLOCAL1: 99.9% of the norm of Vloc inside     58.745 Ry
atom: Maximum radius for 4*pi*r*r*local-pseudopot. charge    1.52711
atom: Maximum radius for r*vlocal+2*Zval:    1.28155

KBgen: Kleinman-Bylander projectors: 
GHOST: No ghost state for L =  0
   l= 0   rc=  1.434438   el= -0.456815   Ekb= -1.960338   kbcos= -0.349997
GHOST: No ghost state for L =  1
   l= 1   rc=  1.508111   el=  0.001431   Ekb= -0.423993   kbcos= -0.025386
GHOST: No ghost state for L =  2
   l= 2   rc=  1.546352   el=  0.002365   Ekb= -0.376562   kbcos= -0.002012

KBgen: Total number of  Kleinman-Bylander projectors:    9
atom: -------------------------------------------------------------------------

atom: SANKEY-TYPE ORBITALS:
atom: Selected multiple-zeta basis: split     

SPLIT: Orbitals with angular momentum L= 0

SPLIT: Basis orbitals for state 1s

SPLIT: PAO cut-off radius determined from an
SPLIT: energy shift=  0.020000 Ry

   izeta = 1
                 lambda =    1.000000
                     rc =    4.828263
                 energy =   -0.438372
                kinetic =    0.921576
    potential(screened) =   -1.359947
       potential(ionic) =   -1.906664

   izeta = 2
                 rmatch =    3.903467
              splitnorm =    0.150000
                 energy =   -0.330751
                kinetic =    1.475177
    potential(screened) =   -1.805928
       potential(ionic) =   -2.389550

POLgen: Perturbative polarization orbital with L=  1

POLgen: Polarization orbital for state 1s

   izeta = 1
                     rc =    4.828263
                 energy =    0.711580
                kinetic =    1.391494
    potential(screened) =   -0.679914
       potential(ionic) =   -1.168115
atom: Total number of Sankey-type orbitals:  5

atm_pop: Valence configuration (for local Pseudopot. screening):
 1s( 1.00)                                                            
Vna: chval, zval:    1.00000   1.00000

Vna:  Cut-off radius for the neutral-atom potential:   4.828263

atom: _________________________________________________________________________

<basis_specs>
===============================================================================
O                    Z=   8    Mass=  16.000        Charge= 0.17977+309
Lmxo=1 Lmxkb= 3    BasisType=split      Semic=F
L=0  Nsemic=0  Cnfigmx=2
          i=1  nzeta=2  polorb=0  (2s)
            splnorm:   0.15000    
               vcte:    0.0000    
               rinn:    0.0000    
               qcoe:    0.0000    
               qyuk:    0.0000    
               qwid:   0.10000E-01
                rcs:    0.0000      0.0000    
            lambdas:    1.0000      1.0000    
L=1  Nsemic=0  Cnfigmx=2
          i=1  nzeta=2  polorb=1  (2p)
            splnorm:   0.15000    
               vcte:    0.0000    
               rinn:    0.0000    
               qcoe:    0.0000    
               qyuk:    0.0000    
               qwid:   0.10000E-01
                rcs:    0.0000      0.0000    
            lambdas:    1.0000      1.0000    
-------------------------------------------------------------------------------
L=0  Nkbl=1  erefs: 0.17977+309
L=1  Nkbl=1  erefs: 0.17977+309
L=2  Nkbl=1  erefs: 0.17977+309
L=3  Nkbl=1  erefs: 0.17977+309
===============================================================================
</basis_specs>

atom: Called for O                     (Z =   8)

read_vps: Pseudopotential generation method:
read_vps: ATM3      Troullier-Martins                       
Valence charge for ps generation:    6.00000

read_vps: Pseudopotential includes a core correction:
read_vps: Pseudo-core for xc-correction

xc_check: Exchange-correlation functional:
xc_check: Ceperley-Alder
xc_check: WARNING: Pseudopotential generated with GGA PBE functional
V l=0 = -2*Zval/r beyond r=  1.4482
V l=1 = -2*Zval/r beyond r=  1.4482
V l=2 = -2*Zval/r beyond r=  1.4482
V l=3 = -2*Zval/r beyond r=  1.4482
All V_l potentials equal beyond r=  1.4482
This should be close to max(r_c) in ps generation
All pots = -2*Zval/r beyond r=  1.4482

VLOCAL1: 99.0% of the norm of Vloc inside     20.696 Ry
VLOCAL1: 99.9% of the norm of Vloc inside     47.167 Ry
atom: Maximum radius for 4*pi*r*r*local-pseudopot. charge    1.74697
atom: Maximum radius for r*vlocal+2*Zval:    1.52250

KBgen: Kleinman-Bylander projectors: 
GHOST: No ghost state for L =  0
   l= 0   rc=  1.620715   el= -1.738829   Ekb=  4.895054   kbcos=  0.290645
GHOST: No ghost state for L =  1
   l= 1   rc=  1.600578   el= -0.650915   Ekb= -6.916539   kbcos= -0.494696
GHOST: No ghost state for L =  2
   l= 2   rc=  1.703827   el=  0.002386   Ekb= -1.538961   kbcos= -0.006789
GHOST: No ghost state for L =  3
   l= 3   rc=  1.746967   el=  0.003508   Ekb= -0.568530   kbcos= -0.000966

KBgen: Total number of  Kleinman-Bylander projectors:   16
atom: -------------------------------------------------------------------------

atom: SANKEY-TYPE ORBITALS:
atom: Selected multiple-zeta basis: split     

SPLIT: Orbitals with angular momentum L= 0

SPLIT: Basis orbitals for state 2s

SPLIT: PAO cut-off radius determined from an
SPLIT: energy shift=  0.020000 Ry

   izeta = 1
                 lambda =    1.000000
                     rc =    3.305093
                 energy =   -1.720120
                kinetic =    1.583509
    potential(screened) =   -3.303629
       potential(ionic) =  -11.248859

   izeta = 2
                 rmatch =    2.510382
              splitnorm =    0.150000
                 energy =   -1.472890
                kinetic =    2.379100
    potential(screened) =   -3.851990
       potential(ionic) =  -12.389687

SPLIT: Orbitals with angular momentum L= 1

SPLIT: Basis orbitals for state 2p

SPLIT: PAO cut-off radius determined from an
SPLIT: energy shift=  0.020000 Ry

   izeta = 1
                 lambda =    1.000000
                     rc =    3.937239
                 energy =   -0.631844
                kinetic =    4.616405
    potential(screened) =   -5.248250
       potential(ionic) =  -12.927368

   izeta = 2
                 rmatch =    2.573941
              splitnorm =    0.150000
                 energy =   -0.344812
                kinetic =    6.889580
    potential(screened) =   -7.234392
       potential(ionic) =  -15.793960

POLgen: Perturbative polarization orbital with L=  2

POLgen: Polarization orbital for state 2p

   izeta = 1
                     rc =    3.937239
                 energy =    2.368129
                kinetic =    4.725445
    potential(screened) =   -2.357315
       potential(ionic) =   -8.649185
atom: Total number of Sankey-type orbitals: 13

atm_pop: Valence configuration (for local Pseudopot. screening):
 2s( 2.00)                                                            
 2p( 4.00)                                                            
Vna: chval, zval:    6.00000   6.00000

Vna:  Cut-off radius for the neutral-atom potential:   3.937239
comcore: Pseudo-core radius Rcore=  1.377587

atom: _________________________________________________________________________

prinput: Basis input ----------------------------------------------------------

PAO.BasisType split     

%block ChemicalSpeciesLabel
    1    6 C                       # Species index, atomic number, species label
    2    7 N                       # Species index, atomic number, species label
    3    1 H                       # Species index, atomic number, species label
    4    8 O                       # Species index, atomic number, species label
%endblock ChemicalSpeciesLabel

%block PAO.Basis                 # Define Basis set
C                     2                    # Species label, number of l-shells
 n=2   0   2                         # n, l, Nzeta 
   4.192      3.432   
   1.000      1.000   
 n=2   1   2 P   1                   # n, l, Nzeta, Polarization, NzetaPol
   4.994      3.519   
   1.000      1.000   
N                     2                    # Species label, number of l-shells
 n=2   0   2                         # n, l, Nzeta 
   3.684      2.905   
   1.000      1.000   
 n=2   1   2 P   1                   # n, l, Nzeta, Polarization, NzetaPol
   4.389      2.979   
   1.000      1.000   
H                     1                    # Species label, number of l-shells
 n=1   0   2 P   1                   # n, l, Nzeta, Polarization, NzetaPol
   4.828      3.903   
   1.000      1.000   
O                     2                    # Species label, number of l-shells
 n=2   0   2                         # n, l, Nzeta 
   3.305      2.510   
   1.000      1.000   
 n=2   1   2 P   1                   # n, l, Nzeta, Polarization, NzetaPol
   3.937      2.574   
   1.000      1.000   
%endblock PAO.Basis

prinput: ----------------------------------------------------------------------

coor:   Atomic-coordinates input format  =     Cartesian coordinates
coor:                                          (in Angstroms)

siesta: Atomic coordinates (Bohr) and species
siesta:     12.52068  51.49579  37.97408  1        1
siesta:     12.82786  50.03001  35.52313  1        2
siesta:     13.00450  51.80009  33.24625  1        3
siesta:     13.28142  50.40205  30.72788  1        4
siesta:     15.73816  48.97435  30.37406  1        5
siesta:     15.71473  46.39924  31.03163  1        6
siesta:     17.82427  44.78083  30.94645  1        7
siesta:     20.13703  45.79709  30.07888  1        8
siesta:     20.15602  48.39987  29.38572  1        9
siesta:     18.01368  50.00792  29.51196  1       10
siesta:     18.33229  52.77001  28.82950  1       11
siesta:     16.91247  53.68091  26.49178  1       12
siesta:     22.29483  44.24331  29.93359  1       13
siesta:     24.50056  45.20009  29.09087  2       14
siesta:     26.50165  43.62748  28.95430  1       15
siesta:     28.98978  44.15679  28.12789  1       16
siesta:     30.36484  41.95374  28.31850  1       17
siesta:     28.78485  40.11516  29.23684  2       18
siesta:     29.28676  38.30129  29.56260  3       19
siesta:     26.41348  41.09692  29.64346  1       20
siesta:     24.15428  40.03977  30.55051  1       21
siesta:     23.97223  37.49051  31.28587  1       22
siesta:     21.67281  36.55598  32.17021  1       23
siesta:     19.55594  38.13504  32.32777  1       24
siesta:     17.24269  37.22509  33.23312  1       25
siesta:     15.22361  38.87779  33.40407  1       26
siesta:     12.66710  37.99347  34.35583  1       27
siesta:     11.04279  39.98745  35.76312  1       28
siesta:     10.23102  42.21059  34.10818  1       29
siesta:      8.63463  38.77952  36.81677  1       30
siesta:     15.42306  41.28975  32.60402  2       31
siesta:     17.62835  42.24021  31.71721  1       32
siesta:     19.74948  40.69824  31.57386  1       33
siesta:     22.06781  41.68810  30.67804  1       34
siesta:     12.16591  50.19390  39.54128  3       35
siesta:     10.93825  52.82295  37.86580  3       36
siesta:     14.23891  52.56432  38.40525  3       37
siesta:     11.21500  48.75173  35.28503  3       38
siesta:     14.52832  48.86168  35.67081  3       39
siesta:     14.55713  53.14417  33.50600  3       40
siesta:     11.25907  52.92023  33.15379  3       41
siesta:     13.00083  51.75345  29.20622  3       42
siesta:     11.68906  49.08808  30.50154  3       43
siesta:     13.92729  45.62720  31.67021  3       44
siesta:     21.94703  49.20248  28.74305  3       45
siesta:     20.34262  53.16095  28.49750  3       46
siesta:     17.81653  53.92247  30.47062  3       47
siesta:     17.55666  52.70211  24.78984  3       48
siesta:     17.22706  55.71081  26.23649  3       49
siesta:     14.87321  53.42389  26.59924  3       50
siesta:     29.68142  45.95983  27.46425  3       51
siesta:     32.31774  41.53692  27.88160  3       52
siesta:     25.58549  36.22773  31.18851  3       53
siesta:     21.55454  34.58499  32.74323  3       54
siesta:     17.03253  35.26707  33.80595  3       55
siesta:     12.98888  36.41585  35.66829  3       56
siesta:     11.61178  37.22112  32.74723  3       57
siesta:     12.14286  40.73241  37.35669  3       58
siesta:      9.39261  41.57931  32.32662  3       59
siesta:     11.82692  43.41749  33.69239  3       60
siesta:      8.88509  43.44030  35.08310  3       61
siesta:      7.50150  37.93792  35.30216  3       62
siesta:      7.46201  40.20433  37.75972  3       63
siesta:      9.07446  37.31190  38.20231  3       64
siesta:      8.78264  32.59124  18.52383  1       65
siesta:      9.43470  30.21187  17.96199  1       66
siesta:      9.05588  28.02132  19.78936  1       67
siesta:      6.83592  27.72055  21.61022  1       68
siesta:      6.71563  29.56696  23.61852  1       69
siesta:      9.15052  29.60979  25.02822  1       70
siesta:      8.91794  31.91117  26.92979  1       71
siesta:      8.15403  34.86083  25.30892  1       72
siesta:      5.52038  35.56073  24.26336  1       73
siesta:      2.95604  35.09859  25.64571  1       74
siesta:      2.14855  32.49359  26.76958  1       75
siesta:      3.15611  31.51347  29.36640  1       76
siesta:      5.90857  31.01587  29.63927  1       77
siesta:      7.97861  34.02337  29.56976  1       78
siesta:     11.28489  34.52243  28.32704  1       79
siesta:     12.71971  36.72511  26.95557  1       80
siesta:     15.39359  35.98170  26.05259  1       81
siesta:     10.87487  29.86613  15.75533  4       82
siesta:     11.00001  27.42830  14.54216  1       83
siesta:      8.95483  27.17610  12.41966  1       84
siesta:      9.14421  28.60262   9.90013  1       85
siesta:     13.67723  26.78622  13.51396  1       86
siesta:     15.78804  26.32448  15.26168  4       87
siesta:     15.86772  24.19901  16.75746  1       88
siesta:     13.99839  22.96295  17.31654  4       89
siesta:     18.56480  23.68294  17.78845  1       90
siesta:     20.09540  21.19944  17.28190  1       91
siesta:     19.25042  18.61072  18.35400  1       92
siesta:     21.04807  16.38762  17.65854  1       93
siesta:     20.28586  13.73692  18.65611  1       94
siesta:     17.78724  12.55142  17.79037  1       95
siesta:     15.20517  13.88690  18.28818  1       96
siesta:     13.63226  14.76092  20.59263  1       97
siesta:     13.53651  16.21813  22.71392  1       98
siesta:     15.21225  17.79978  24.48373  1       99
siesta:     14.76421  20.72508  24.89880  1      100
siesta:     16.49635  21.87266  27.02975  1      101
siesta:     16.07857  24.70605  27.55263  1      102
siesta:     17.92097  25.85764  29.50707  1      103
siesta:     17.65677  28.71206  30.00887  1      104
siesta:     18.36225  30.39903  27.77386  1      105
siesta:     16.73549  30.18305  25.42262  1      106
siesta:      7.87759  33.07524  20.26269  3      107
siesta:      9.23888  34.20428  17.35399  3      108
siesta:     10.80519  27.92478  20.89258  3      109
siesta:      8.86553  26.27069  18.77316  3      110
siesta:      7.08429  25.93476  22.63898  3      111
siesta:      5.00444  27.69635  20.67917  3      112
siesta:      5.09348  29.10738  24.78209  3      113
siesta:      6.24683  31.39844  22.89139  3      114
siesta:     10.80378  30.16475  23.92263  3      115
siesta:      9.54794  27.91151  26.17506  3      116
siesta:     10.71887  30.88085  27.94735  3      117
siesta:      9.21307  31.21383  29.13234  3      118
siesta:      9.55960  35.28207  23.87774  3      119
siesta:      8.29547  36.68136  26.62140  3      120
siesta:      5.48651  34.65500  22.46280  3      121
siesta:      5.60142  37.60997  23.72582  3      122
siesta:      1.57527  35.47471  24.13434  3      123
siesta:      2.60059  36.55439  27.08235  3      124
siesta:      2.23167  31.10663  25.24338  3      125
siesta:      0.10847  32.60385  27.13520  3      126
siesta:      2.28923  29.65217  29.77317  3      127
siesta:      2.89561  32.85862  30.84622  3      128
siesta:      6.06608  29.58398  28.11914  3      129
siesta:      6.64226  29.73827  31.08634  3      130
siesta:      7.51690  35.40094  31.10748  3      131
siesta:      6.22217  34.58686  28.27168  3      132
siesta:     11.79616  33.42881  26.36676  3      133
siesta:     12.65028  33.34070  29.35613  3      134
siesta:     12.67580  38.14352  28.36890  3      135
siesta:     11.98906  37.43619  25.13906  3      136
siesta:     16.57538  35.60350  27.68140  3      137
siesta:     16.19991  37.49975  24.91197  3      138
siesta:     15.41100  34.38183  24.75085  3      139
siesta:     10.58414  25.94763  15.88866  3      140
siesta:      7.10094  27.62317  13.22809  3      141
siesta:      8.90840  25.16984  11.89944  3      142
siesta:      9.40883  30.64312  10.07396  3      143
siesta:      7.36082  28.32803   8.85940  3      144
siesta:     10.63154  27.83306   8.68166  3      145
siesta:     14.31025  28.33537  12.29413  3      146
siesta:     13.53120  25.09442  12.33094  3      147
siesta:     18.52453  24.07467  19.82122  3      148
siesta:     19.74988  25.18466  16.97162  3      149
siesta:     21.97624  21.54297  18.09773  3      150
siesta:     20.37955  20.99418  15.24259  3      151
siesta:     17.39340  18.22408  17.59138  3      152
siesta:     19.11229  18.68761  20.41409  3      153
siesta:     22.93950  16.78947  18.43356  3      154
siesta:     21.32266  16.29114  15.60297  3      155
siesta:     20.34771  13.69899  20.71794  3      156
siesta:     21.80005  12.43030  18.03860  3      157
siesta:     17.72353  10.56930  18.43432  3      158
siesta:     17.93795  12.33179  15.71295  3      159
siesta:     13.89945  12.53777  17.35173  3      160
siesta:     15.12724  15.46840  16.97363  3      161
siesta:     11.71562  14.02436  20.21221  3      162
siesta:     11.62464  16.21714  23.53357  3      163
siesta:     17.19890  17.46045  24.06997  3      164
siesta:     14.85952  16.97670  26.36374  3      165
siesta:     12.78789  21.11570  25.40502  3      166
siesta:     15.13492  21.72975  23.12413  3      167
siesta:     18.47371  21.62878  26.45449  3      168
siesta:     16.22210  20.87683  28.81644  3      169
siesta:     14.13601  25.11939  28.13497  3      170
siesta:     16.34605  25.54118  25.72214  3      171
siesta:     19.88596  25.48511  28.96159  3      172
siesta:     17.60803  24.89326  31.31340  3      173
siesta:     18.94211  29.22435  31.57216  3      174
siesta:     15.75923  29.16538  30.70929  3      175
siesta:     20.33349  30.07912  27.24777  3      176
siesta:     18.28272  32.35252  28.44221  3      177
siesta:     16.83721  28.42246  24.40852  3      178
siesta:     17.44145  31.47058  23.97665  3      179
siesta:     14.74917  30.54202  25.84950  3      180
siesta:     54.72419  51.02317  11.44337  1      181
siesta:     52.48435  50.28569   9.74309  1      182
siesta:     52.73887  51.66875   7.21219  1      183
siesta:     52.40116  47.39440   9.38589  1      184
siesta:     52.14269  45.81603  11.65339  2      185
siesta:     50.31979  45.52726  13.43633  1      186
siesta:     50.44708  43.62100  14.77713  4      187
siesta:     48.06958  47.36358  13.65482  1      188
siesta:     47.48647  47.96970  16.46780  1      189
siesta:     49.73270  49.32146  17.70835  1      190
siesta:     45.12085  49.62003  16.80169  1      191
siesta:     45.95289  46.07113  12.43684  2      192
siesta:     45.32801  46.05106   9.93142  1      193
siesta:     43.94824  44.35217   9.15816  4      194
siesta:     46.48243  48.03489   8.11963  1      195
siesta:     44.41015  49.01731   6.28232  1      196
siesta:     42.28654  50.38017   7.70348  1      197
siesta:     45.48451  50.80789   4.27123  1      198
siesta:     48.43362  46.68726   6.69911  2      199
siesta:     50.89547  46.19812   7.19263  1      200
siesta:     51.90964  44.55413   5.87497  4      201
siesta:     54.78671  53.07174  11.73273  3      202
siesta:     56.52792  50.45359  10.59872  3      203
siesta:     54.58017  50.13423  13.30567  3      204
siesta:     50.78916  51.01087  10.65124  3      205
siesta:     54.38800  51.00830   6.15151  3      206
siesta:     52.94435  53.70741   7.50876  3      207
siesta:     51.06229  51.38898   6.03800  3      208
siesta:     54.35575  46.95476   8.80518  3      209
siesta:     53.31368  44.29388  11.67301  3      210
siesta:     48.45076  49.12134  12.69124  3      211
siesta:     47.15632  46.20352  17.50453  3      212
siesta:     50.07562  51.16646  16.83379  3      213
siesta:     51.46682  48.20662  17.55805  3      214
siesta:     49.37446  49.62921  19.72408  3      215
siesta:     45.18776  51.31090  15.60964  3      216
siesta:     44.94074  50.25030  18.76876  3      217
siesta:     43.39887  48.56977  16.34349  3      218
siesta:     45.30313  44.49844  13.32905  3      219
siesta:     47.30696  49.62171   9.12475  3      220
siesta:     43.56373  47.40818   5.27969  3      221
siesta:     42.99918  52.05411   8.68888  3      222
siesta:     41.38432  49.14507   9.09436  3      223
siesta:     40.81182  50.99449   6.38561  3      224
siesta:     46.46609  52.41037   5.13653  3      225
siesta:     43.96685  51.56403   3.08107  3      226
siesta:     46.81017  49.83065   3.01970  3      227
siesta:     47.76659  45.44527   5.39470  3      228

siesta: System type = molecule  

initatomlists: Number of atoms, orbitals, and projectors:    228  1908  2724

coxmol: Writing XMOL coordinates into file siesta.xyz                                                          

siesta: ******************** Simulation parameters ****************************
siesta:
siesta: The following are some of the parameters of the simulation.
siesta: A complete list of the parameters used, including default values,
siesta: can be found in file out.fdf
siesta:
redata: Spin configuration                          = collinear
redata: Number of spin components                   = 2
redata: Time-Reversal Symmetry                      = T
redata: Spin spiral                                 = F
redata: Long output                                 =   T
redata: Number of Atomic Species                    =        4
redata: Charge density info will appear in .RHO file
redata: Write Mulliken Pop.                         = Atomic and Orbital charges
redata: Matel table size (NRTAB)                    =     1024
redata: Mesh Cutoff                                 =   100.0000 Ry
redata: Net charge of the system                    =     0.0000 |e|
redata: Min. number of SCF Iter                     =        0
redata: Max. number of SCF Iter                     =      100
redata: SCF convergence failure will abort job
redata: SCF mix quantity                            = Hamiltonian
redata: Mix DM or H after convergence               =   F
redata: Recompute H after scf cycle                 =   F
redata: Mix DM in first SCF step                    =   T
redata: Write Pulay info on disk                    =   F
redata: New DM Occupancy tolerance                  = 0.000000000001
redata: No kicks to SCF
redata: DM Mixing Weight for Kicks                  =     0.5000
redata: Require Harris convergence for SCF          =   F
redata: Harris energy tolerance for SCF             =     0.000100 eV
redata: Require DM convergence for SCF              =   T
redata: DM tolerance for SCF                        =     0.001000
redata: Require EDM convergence for SCF             =   F
redata: EDM tolerance for SCF                       =     0.001000 eV
redata: Require H convergence for SCF               =   T
redata: Hamiltonian tolerance for SCF               =     0.001000 eV
redata: Require (free) Energy convergence for SCF   =   F
redata: (free) Energy tolerance for SCF             =     0.000100 eV
redata: Antiferro initial spin density              =   F
redata: Using Saved Data (generic)                  =   F
redata: Use continuation files for DM               =   F
redata: Neglect nonoverlap interactions             =   F
redata: Method of Calculation                       = Diagonalization
redata: Electronic Temperature                      =   299.9869 K
redata: Fix the spin of the system                  =   F
redata: Max. number of TDED Iter                    =        1
redata: Number of TDED substeps                     =        3
redata: Dynamics option                             = Nose thermostat MD run
redata: Initial MD time step                        =        1
redata:   Final MD time step                        =       10
redata: Length of MD time step                      =     1.0000 fs
redata: Initial Temperature of MD run               =   300.0000 K
redata: Perform a MD quench                         =   F
redata: Nose mass                                   =  1360.5800 eV/fs**2
redata: Target Temperature                          =   300.0000 Kelvin
mix.SCF: Pulay mixing                            = Pulay
mix.SCF:    Variant                              = stable
mix.SCF:    History steps                        = 3
mix.SCF:    Linear mixing weight                 =     0.250000
mix.SCF:    Mixing weight                        =     0.250000
mix.SCF:    SVD condition                        = 0.1000E-07
mix.SCF: Spin-component mixing                   all
redata: ***********************************************************************

%block SCF.Mixers
  Pulay
%endblock SCF.Mixers

%block SCF.Mixer.Pulay
  # Mixing method
  method pulay
  variant stable

  # Mixing options
  weight 0.2500
  weight.linear 0.2500
  history 3
%endblock SCF.Mixer.Pulay

Size of DM history Fstack: 1
Total number of electrons:   534.000000
Total ionic charge:   534.000000
 Kpoints in:            1 . Kpoints trimmed:            1

siesta: k-point coordinates (Bohr**-1) and weights:
siesta:          1  0.000000E+00  0.000000E+00  0.000000E+00   0.100000E+01

siesta: k-grid: Number of k-points =         1
siesta: k-points from Monkhorst-Pack grid
siesta: k-cutoff (effective) =    13.663 Ang
siesta: k-point supercell and displacements
siesta: k-grid:    1   0   0      0.000
siesta: k-grid:    0   1   0      0.000
siesta: k-grid:    0   0   1      0.000
 Kpoints in:            1 . Kpoints trimmed:            1

siesta: PDOS k-point coordinates (Bohr**-1) and weights:
siesta:          1  0.000000E+00  0.000000E+00  0.000000E+00   0.100000E+01

siesta: PDOS k-grid: Number of k-points =         1
siesta: PDOS k-points from Monkhorst-Pack grid
siesta: PDOS k-cutoff (effective) =     0.000 Ang
siesta: PDOS k-point supercell and displacements
siesta: k-grid:    1   0   0      0.000
siesta: k-grid:    0   1   0      0.000
siesta: k-grid:    0   0   1      0.000

diag: Algorithm                                     = D&C
diag: Used triangular part                          = Lower
diag: Absolute tolerance                            =  0.100E-15
diag: Orthogonalization factor                      =  0.100E-05
diag: Memory factor                                 =  1.0000
Using LatticeConstant from fdf file for BandLinesScale:    1.889727 Bohr
Beware any cell changes by the end of the run
Using LatticeConstant from fdf file for BandLinesScale:    1.889727 Bohr
Beware any cell changes by the end of the run


ts: **************************************************************
ts: Save H and S matrices                           =    F
ts: Save DM and EDM matrices                        =    F
ts: Only save the overlap matrix S                  =    F
ts: **************************************************************

************************ Begin: TS CHECKS AND WARNINGS ************************
************************ End: TS CHECKS AND WARNINGS **************************


                     ====================================
                        Begin MD step =      1
                     ====================================

outcoor: Atomic coordinates (Ang):                          
    6.62565500   27.25038700   20.09500800   1       1  C
    6.78821100   26.47472900   18.79802500   1       2  C
    6.88168400   27.41141500   17.59315100   1       3  C
    7.02822100   26.67160700   16.26048900   1       4  C
    8.32827200   25.91609700   16.07325600   1       5  C
    8.31587200   24.55340800   16.42122400   1       6  C
    9.43219300   23.69698300   16.37614800   1       7  C
   10.65605300   24.23476700   15.91704900   1       8  C
   10.66610100   25.61209800   15.55024800   1       9  C
    9.53242600   26.46304100   15.61705300   1      10  C
    9.70102800   27.92467300   15.25590900   1      11  C
    8.94968900   28.40670400   14.01884300   1      12  C
   11.79791000   23.41254000   15.84017000   1      13  C
   12.96513400   23.91884700   15.39421700   2      14  N
   14.02406600   23.08665900   15.32194800   1      15  C
   15.34072300   23.36675700   14.88463100   1      16  C
   16.06837700   22.20095600   14.98549700   1      17  C
   15.23228300   21.22801900   15.47146400   2      18  N
   15.49787900   20.26816000   15.64384800   3      19  H
   13.97740600   21.74754600   15.68663800   1      20  C
   12.78188900   21.18812600   16.16662900   1      21  C
   12.68555100   19.83911700   16.55576500   1      22  C
   11.46875500   19.34458600   17.02373300   1      23  C
   10.34855300   20.18018800   17.10711300   1      24  C
    9.12443500   19.69866400   17.58620400   1      25  C
    8.05598200   20.57323300   17.67666500   1      26  C
    6.70314000   20.10527200   18.18031600   1      27  C
    5.84359000   21.16043800   18.92501800   1      28  C
    5.41402200   22.33687100   18.04926500   1      29  C
    4.56924900   20.52123100   19.48259000   1      30  C
    8.16153000   21.84958400   17.25330000   2      31  N
    9.32851700   22.35254600   16.78401900   1      32  C
   10.45096800   21.53657300   16.70816200   1      33  C
   11.67777800   22.06038200   16.23411300   1      34  C
    6.43791900   26.56146000   20.92433700   3      35  H
    5.78827000   27.95269100   20.03771200   3      36  H
    7.53490300   27.81583000   20.32317600   3      37  H
    5.93472200   25.79829300   18.67202600   3      38  H
    7.68805200   25.85647600   18.87617000   3      39  H
    7.70329700   28.12267400   17.73060200   3      40  H
    5.95803900   28.00416700   17.54422500   3      41  H
    6.87974200   27.38673700   15.45526000   3      42  H
    6.18558200   25.97628200   16.14071400   3      43  H
    7.37000300   24.14486700   16.75914900   3      44  H
   11.61386400   26.03682200   15.21016200   3      45  H
   10.76484800   28.13155400   15.08022300   3      46  H
    9.42809700   28.53453200   16.12435000   3      47  H
    9.29058000   27.88874300   13.11821400   3      48  H
    9.11616200   29.48088100   13.88374600   3      49  H
    7.87056100   28.27069300   14.07570400   3      50  H
   15.70672500   24.32088600   14.53345200   3      51  H
   17.10180700   21.98038100   14.75430100   3      52  H
   13.53925300   19.17088300   16.50424400   3      53  H
   11.40616500   18.30158100   17.32696300   3      54  H
    9.01322200   18.66252300   17.88932900   3      55  H
    6.87341400   19.27042900   18.87483700   3      56  H
    6.14468800   19.69655900   17.32908300   3      57  H
    6.42572400   21.55465500   19.76830200   3      58  H
    4.97035100   22.00281500   17.10650300   3      59  H
    6.25853400   22.97553800   17.82924000   3      60  H
    4.70178700   22.98760500   18.56516800   3      61  H
    3.96961900   20.07587500   18.68109100   3      62  H
    3.94872200   21.27520700   19.98157700   3      63  H
    4.80199600   19.74460100   20.21578400   3      64  H
    4.64756900   17.24653400    9.80238400   1      65  C
    4.99262800   15.98742900    9.50507000   1      66  C
    4.79216100   14.82823900   10.47207600   1      67  C
    3.61740900   14.66907800   11.43563400   1      68  C
    3.55375700   15.64615400   12.49837600   1      69  C
    4.84224300   15.66882100   13.24436000   1      70  C
    4.71916700   16.88665600   14.25062600   1      71  C
    4.31492600   18.44754900   13.39289800   1      72  C
    2.92126000   18.81791800   12.83961300   1      73  C
    1.56427000   18.57336800   13.57111800   1      74  C
    1.13696300   17.19486200   14.16584800   1      75  C
    1.67014200   16.67620500   15.54002200   1      76  C
    3.12668100   16.41288400   15.68441900   1      77  C
    4.22209700   18.00438400   15.64763600   1      78  C
    5.97170200   18.26847400   14.99001600   1      79  C
    6.73097800   19.43408400   14.26426800   1      80  C
    8.14593500   19.04068600   13.78642900   1      81  C
    5.75473000   15.80447100    8.33735800   4      82  O
    5.82095100   14.51442600    7.69537900   1      83  C
    4.73869100   14.38096900    6.57220000   1      84  C
    4.83890300   15.13585100    5.23891900   1      85  C
    7.23767700   14.17464900    7.15127600   1      86  C
    8.35466700   13.93030700    8.07613200   4      87  O
    8.39683300   12.80555800    8.86766400   1      88  C
    7.40762500   12.15146700    9.16351500   4      89  O
    9.82406700   12.53246900    9.41324100   1      90  C
   10.63402500   11.21825500    9.14518400   1      91  C
   10.18687800    9.84836400    9.71251400   1      92  C
   11.13815600    8.67195200    9.34449100   1      93  C
   10.73481200    7.26926400    9.87238200   1      94  C
    9.41259600    6.64192200    9.41425600   1      95  C
    8.04622400    7.34862900    9.67768600   1      96  C
    7.21387600    7.81114100   10.89714400   1      97  C
    7.16321000    8.58226300   12.01968300   1      98  C
    8.04997100    9.41923400   12.95622500   1      99  C
    7.81288100   10.96723400   13.17587000   1     100  C
    8.72948800   11.57450700   14.30352200   1     101  C
    8.50841000   13.07387500   14.58022000   1     102  C
    9.48336300   13.68326600   15.61446100   1     103  C
    9.34355400   15.19376400   15.88000400   1     104  C
    9.71688100   16.08647000   14.69728900   1     105  C
    8.85603500   15.97217600   13.45306400   1     106  C
    4.16864200   17.50265700   10.72255200   3     107  H
    4.88900200   18.10011800    9.18333000   3     108  H
    5.71785600   14.77715300   11.05587200   3     109  H
    4.69143300   13.90184500    9.93432600   3     110  H
    3.74884400   13.72408000   11.98003000   3     111  H
    2.64823500   14.65627000   10.94294300   3     112  H
    2.69535000   15.40295400   13.11411200   3     113  H
    3.30568000   16.61533200   12.11359900   3     114  H
    5.71711100   15.96249300   12.65930600   3     115  H
    5.05255000   14.77013000   13.85123800   3     116  H
    5.67217800   16.34143600   14.78909700   3     117  H
    4.87534300   16.51764100   15.41616600   3     118  H
    5.05872300   18.67046200   12.63555100   3     119  H
    4.38977200   19.41093200   14.08743200   3     120  H
    2.90333300   18.33862700   11.88679500   3     121  H
    2.96414200   19.90233000   12.55515600   3     122  H
    0.83359600   18.77240000   12.77133700   3     123  H
    1.37617200   19.34374000   14.33135700   3     124  H
    1.18094900   16.46091400   13.35821500   3     125  H
    0.05740200   17.25320800   14.35932600   3     126  H
    1.21140600   15.69124900   15.75527500   3     127  H
    1.53229200   17.38802400   16.32310800   3     128  H
    3.21003200   15.65516400   14.88000100   3     129  H
    3.51493300   15.73680800   16.45017700   3     130  H
    3.97776900   18.73336400   16.46136200   3     131  H
    3.29262700   18.30257200   14.96072400   3     132  H
    6.24225700   17.68975900   13.95268300   3     133  H
    6.69423500   17.64313200   15.53459100   3     134  H
    6.70774000   20.18467500   15.01216900   3     135  H
    6.34433400   19.81037200   13.30301400   3     136  H
    8.77130800   18.84055300   14.64836000   3     137  H
    8.57262000   19.84400700   13.18284100   3     138  H
    8.15514800   18.19407500   13.09758200   3     139  H
    5.60088300   13.73089100    8.40791300   3     140  H
    3.75765300   14.61754800    7.00000000   3     141  H
    4.71411800   13.31930200    6.29690900   3     142  H
    4.97893900   16.21563300    5.33090900   3     143  H
    3.89517700   14.99054200    4.68818900   3     144  H
    5.62596900   14.72861500    4.59413300   3     145  H
    7.57265500   14.99442800    6.50576900   3     146  H
    7.16040000   13.27938900    6.52525200   3     147  H
    9.80275700   12.73976300   10.48893200   3     148  H
   10.45118200   13.32714300    8.98099300   3     149  H
   11.62932100   11.40004600    9.57690000   3     150  H
   10.78438900   11.10963800    8.06602800   3     151  H
    9.20418700    9.64376600    9.30895300   3     152  H
   10.11378600    9.88905500   10.80266600   3     153  H
   12.13905600    8.88459900    9.75461400   3     154  H
   11.28346000    8.62089500    8.25673200   3     155  H
   10.76753900    7.24919300   10.96345800   3     156  H
   11.53608500    6.57783100    9.54561400   3     157  H
    9.37888700    5.59303000    9.75501700   3     158  H
    9.49234800    6.52570000    8.31493100   3     159  H
    7.35526700    6.63469800    9.18213900   3     160  H
    8.00498900    8.18552100    8.98205200   3     161  H
    6.19963600    7.42136900   10.69583800   3     162  H
    6.15149200    8.58174000   12.45342500   3     163  H
    9.10126300    9.23967000   12.73727500   3     164  H
    7.86331500    8.98367700   13.95108500   3     165  H
    6.76705900   11.17394100   13.44375300   3     166  H
    8.00905100   11.49888300   12.23675900   3     167  H
    9.77586200   11.44545200   13.99911000   3     168  H
    8.58436100   11.04753700   15.24899500   3     169  H
    7.48045000   13.29260300   14.88837900   3     170  H
    8.64995300   13.51580700   13.61156400   3     171  H
   10.52319200   13.48613400   15.32580500   3     172  H
    9.31776400   13.17293900   16.57033100   3     173  H
   10.02372700   15.46485200   16.70726300   3     174  H
    8.33942000   15.43365000   16.25064900   3     175  H
   10.76001300   15.91718000   14.41889100   3     176  H
    9.67479700   17.12020700   15.05096600   3     177  H
    8.90986300   15.04051300   12.91642800   3     178  H
    9.22961400   16.65350500   12.68789100   3     179  H
    7.80491900   16.16213300   13.67896000   3     180  H
   28.95878400   27.00028900    6.05556900   1     181  C
   27.77351000   26.61003100    5.15581900   1     182  C
   27.90819700   27.34191500    3.81652600   1     183  C
   27.72949100   25.08002900    4.96679900   1     184  C
   27.59271300   24.24478900    6.16670800   2     185  N
   26.62807300   24.09197900    7.11019900   1     186  C
   26.69543600   23.08323200    7.81971800   4     187  O
   25.43731400   25.06371800    7.22581600   1     188  C
   25.12874700   25.38446200    8.71438200   1     189  C
   26.31740100   26.09978400    9.37085300   1     190  C
   23.87691600   26.25777700    8.89106700   1     191  C
   24.31721100   24.37978100    6.58128900   2     192  N
   23.98653800   24.36916400    5.25548100   1     193  C
   23.25639700   23.47015000    4.84628500   4     194  O
   24.59743100   25.41896100    4.29671900   1     195  C
   23.50083000   25.93883200    3.32446100   1     196  C
   22.37706300   26.66002900    4.07650200   1     197  C
   24.06935500   26.88636900    2.26023700   1     198  C
   25.62995800   24.70582500    3.54501400   2     199  N
   26.93271400   24.44698400    3.80617400   1     200  C
   27.46938900   23.57702200    3.10889900   4     201  O
   28.99186700   28.08434500    6.20869200   3     202  H
   29.91327400   26.69888000    5.60860100   3     203  H
   28.88256900   26.52987900    7.04105200   3     204  H
   26.87645600   26.99378100    5.63639300   3     205  H
   28.78087900   26.99241800    3.25523900   3     206  H
   28.01693400   28.42072700    3.97346200   3     207  H
   27.02098800   27.19386600    3.19516900   3     208  H
   28.76381300   24.84738100    4.65949700   3     209  H
   28.21237500   23.43930300    6.17708600   3     210  H
   25.63902900   25.99388100    6.71591100   3     211  H
   24.95404100   24.44984000    9.26299600   3     212  H
   26.49886700   27.07611200    8.90805600   3     213  H
   27.23505600   25.50983600    9.29131800   3     214  H
   26.12782700   26.26263800   10.43753000   3     215  H
   23.91232400   27.15254900    8.26026400   3     216  H
   23.78160500   26.59130300    9.93199400   3     217  H
   22.96568500   25.70200500    8.64859900   3     218  H
   23.97337700   23.54754900    7.05342600   3     219  H
   25.03375700   26.25866500    4.82860800   3     220  H
   23.05292200   25.08731600    2.79388800   3     221  H
   22.75417600   27.54583800    4.59795400   3     222  H
   21.89962800   26.00643900    4.81252400   3     223  H
   21.59667400   26.98511000    3.37911900   3     224  H
   24.58878400   27.73436200    2.71813100   3     225  H
   23.26624600   27.28649800    1.63043000   3     226  H
   24.77086400   26.36923400    1.59795400   3     227  H
   25.27697900   24.04858900    2.85474900   3     228  H

outcell: Unit cell vectors (Ang):
       37.855872    0.000000    0.000000
        0.000000   31.887851    0.000000
        0.000000    0.000000   27.326383

outcell: Cell vector modules (Ang)   :   37.855872   31.887851   27.326383
outcell: Cell angles (23,13,12) (deg):     90.0000     90.0000     90.0000
outcell: Cell volume (Ang**3)        :  32986.8357
<dSpData1D:S at geom step 1
  <sparsity:sparsity for geom step 1
    nrows_g=1908 nrows=1908 sparsity=.1587 nnzs=577836, refcount: 7>
  <dData1D:(new from dSpData1D) n=577836, refcount: 1>
refcount: 1>
new_DM -- step:     1
Initializing Density Matrix...
DM filled with atomic data:
<dSpData2D:DM initialized from atoms
  <sparsity:sparsity for geom step 1
    nrows_g=1908 nrows=1908 sparsity=.1587 nnzs=577836, refcount: 8>
  <dData2D:DM n=577836 m=2, refcount: 1>
refcount: 1>
     spin moment: S , {S} =  330.00000       0.0       0.0 330.00000
No. of atoms with KB's overlaping orbs in proc 0. Max # of overlaps:     228     212

InitMesh: MESH = 240 x 192 x 180 = 8294400
InitMesh: Mesh cutoff (required, used) =   100.000   100.197 Ry
New grid distribution [1]: sub = 2

stepf: Fermi-Dirac step function

siesta: Program's energy decomposition (eV):
siesta: Ebs     =     -5194.356983
siesta: Eions   =     30070.430106
siesta: Ena     =      5946.951258
siesta: Ekin    =     14750.371320
siesta: Enl     =     -2595.460278
siesta: Eso     =         0.000000
siesta: Edftu   =         0.000000
siesta: DEna    =      -920.353894
siesta: DUscf   =       155.322146
siesta: DUext   =         0.000000
siesta: Exc     =     -7166.714862
siesta: eta*DQ  =         0.000000
siesta: Emadel  =         0.000000
siesta: Emeta   =         0.000000
siesta: Emolmec =         0.000000
siesta: Ekinion =         0.000000
siesta: Eharris =    -19885.469558
siesta: Etot    =    -19900.314417
siesta: FreeEng =    -19900.351587

        iscf     Eharris(eV)        E_KS(eV)     FreeEng(eV)     dDmax    Ef(eV) dHmax(eV)
   scf:    1   -19885.469558   -19900.314417   -19900.351587  0.990343 -4.785185 15.395394
     spin moment: S , {S} =    5.13060       0.0       0.0   5.13060
timer: Routine,Calls,Time,% = IterSCF        1      52.487  42.84
   scf:    2   -19919.617988   -19936.488562   -19936.491332  0.116593 -3.638918 18.611017
     spin moment: S , {S} =    5.99003       0.0       0.0   5.99003
   scf:    3   -19953.935870   -19958.830220   -19958.830221  0.125829 -3.509439  7.395273
     spin moment: S , {S} =    2.00000       0.0       0.0   2.00000
   scf:    4   -19965.355744   -19966.106200   -19966.114511  0.095171 -2.714604  4.741920
     spin moment: S , {S} =    2.00000       0.0       0.0   2.00000
   scf:    5   -19960.617271   -19965.986709   -19965.995494  0.102963 -2.477977  5.682799
     spin moment: S , {S} =    1.99991       0.0       0.0   1.99991
   scf:    6   -19966.185146   -19968.376719   -19968.379699  0.095556 -2.461588  5.038233
     spin moment: S , {S} =    0.02066       0.0       0.0   0.02066
   scf:    7   -19969.180794   -19968.852448   -19968.852843  0.010242 -2.383217  3.078703
     spin moment: S , {S} =    0.00191       0.0       0.0   0.00191
   scf:    8   -19969.112796   -19968.994752   -19968.995211  0.006503 -2.353423  3.038789
     spin moment: S , {S} =    0.00228       0.0       0.0   0.00228
   scf:    9   -19917.211628   -19953.046590   -19953.057410  0.113168 -2.328773 16.013885
     spin moment: S , {S} =   -0.05668       0.0       0.0  -0.05668
   scf:   10   -19965.648323   -19969.136146   -19969.136343  0.113374 -2.356303  2.453960
     spin moment: S , {S} =    0.00087       0.0       0.0   0.00087
   scf:   11   -19969.392353   -19969.264194   -19969.264349  0.009491 -2.354488  1.729751
     spin moment: S , {S} =    0.00040       0.0       0.0   0.00040
   scf:   12   -19969.305655   -19969.285312   -19969.285833  0.001355 -2.343958  1.505133
     spin moment: S , {S} =    0.00003       0.0       0.0   0.00003
   scf:   13   -19919.481108   -19953.510811   -19953.523022  0.117445 -2.297036 15.798958
     spin moment: S , {S} =   -0.12473       0.0       0.0  -0.12473
   scf:   14   -19966.891276   -19969.295108   -19969.296191  0.116886 -2.339008  1.424011
     spin moment: S , {S} =   -0.00063       0.0       0.0  -0.00063
   scf:   15   -19969.333695   -19969.314927   -19969.318096  0.001024 -2.332619  1.237715
     spin moment: S , {S} =   -0.00568       0.0       0.0  -0.00568
   scf:   16   -19969.323797   -19969.319398   -19969.323182  0.000232 -2.331670  1.197643
     spin moment: S , {S} =   -0.00753       0.0       0.0  -0.00753
   scf:   17   -19944.426246   -19961.513161   -19961.566219  0.096325 -2.308092 11.086704
     spin moment: S , {S} =   -0.61922       0.0       0.0  -0.61922
   scf:   18   -19967.598388   -19969.300965   -19969.302605  0.096979 -2.336980  1.366185
     spin moment: S , {S} =   -0.00181       0.0       0.0  -0.00181
   scf:   19   -19969.295639   -19969.298306   -19969.299742  0.000241 -2.338488  1.387020
     spin moment: S , {S} =   -0.00137       0.0       0.0  -0.00137
   scf:   20   -19969.322113   -19969.310405   -19969.313118  0.000698 -2.335303  1.279531
     spin moment: S , {S} =   -0.00396       0.0       0.0  -0.00396
   scf:   21   -19925.235186   -19955.302492   -19955.326534  0.111918 -2.302067 14.718196
     spin moment: S , {S} =   -0.18868       0.0       0.0  -0.18868
   scf:   22   -19967.391311   -19969.320460   -19969.324484  0.111459 -2.333019  1.183550
     spin moment: S , {S} =   -0.00598       0.0       0.0  -0.00598
   scf:   23   -19969.355087   -19969.338473   -19969.345402  0.001056 -2.329942  1.004217
     spin moment: S , {S} =   -0.01164       0.0       0.0  -0.01164
   scf:   24   -19969.358045   -19969.348564   -19969.357403  0.000712 -2.328535  0.891892
     spin moment: S , {S} =   -0.01587       0.0       0.0  -0.01587
   scf:   25   -19969.357112   -19969.380199   -19969.404344  0.006775 -2.322370  0.092996
     spin moment: S , {S} =   -0.06310       0.0       0.0  -0.06310
   scf:   26   -19969.365430   -19969.379090   -19969.396466  0.003453 -2.324462  0.372046
     spin moment: S , {S} =   -0.04082       0.0       0.0  -0.04082
   scf:   27   -19969.366650   -19969.379718   -19969.404110  0.003508 -2.322133  0.114892
     spin moment: S , {S} =   -0.06438       0.0       0.0  -0.06438
   scf:   28   -19969.383906   -19969.382301   -19969.404896  0.001104 -2.322511  0.016390
     spin moment: S , {S} =   -0.05784       0.0       0.0  -0.05784
   scf:   29   -19969.381579   -19969.381960   -19969.404909  0.000315 -2.322284  0.012453
     spin moment: S , {S} =   -0.05879       0.0       0.0  -0.05879
   scf:   30   -19969.382237   -19969.382101   -19969.404918  0.000158 -2.322239  0.003699
     spin moment: S , {S} =   -0.05823       0.0       0.0  -0.05823
   scf:   31   -19969.382167   -19969.382133   -19969.404923  0.000170 -2.322101  0.003059
     spin moment: S , {S} =   -0.05813       0.0       0.0  -0.05813
   scf:   32   -19969.382202   -19969.382166   -19969.404927  0.000207 -2.321915  0.003056
     spin moment: S , {S} =   -0.05842       0.0       0.0  -0.05842
   scf:   33   -19969.382193   -19969.382179   -19969.404928  0.000120 -2.321819  0.003337
     spin moment: S , {S} =   -0.05834       0.0       0.0  -0.05834
   scf:   34   -19969.382172   -19969.382175   -19969.404931  0.000175 -2.321670  0.005292
     spin moment: S , {S} =   -0.06058       0.0       0.0  -0.06058
   scf:   35   -19969.382107   -19969.382136   -19969.404923  0.000411 -2.322075  0.003168
     spin moment: S , {S} =   -0.05748       0.0       0.0  -0.05748
   scf:   36   -19969.382203   -19969.382169   -19969.404925  0.000180 -2.321977  0.002188
     spin moment: S , {S} =   -0.05672       0.0       0.0  -0.05672
   scf:   37   -19969.382198   -19969.382184   -19969.404927  0.000101 -2.321895  0.002340
     spin moment: S , {S} =   -0.05688       0.0       0.0  -0.05688
   scf:   38   -19969.382195   -19969.382189   -19969.404928  0.000035 -2.321865  0.002357
     spin moment: S , {S} =   -0.05694       0.0       0.0  -0.05694
   scf:   39   -19969.382210   -19969.382199   -19969.404927  0.000110 -2.321915  0.002073
     spin moment: S , {S} =   -0.05740       0.0       0.0  -0.05740
   scf:   40   -19969.382196   -19969.382197   -19969.404929  0.000126 -2.321800  0.002541
     spin moment: S , {S} =   -0.05802       0.0       0.0  -0.05802
   scf:   41   -19969.382282   -19969.382237   -19969.404934  0.000338 -2.321464  0.002952
     spin moment: S , {S} =   -0.06502       0.0       0.0  -0.06502
   scf:   42   -19969.382237   -19969.382237   -19969.404932  0.000106 -2.321571  0.001684
     spin moment: S , {S} =   -0.06468       0.0       0.0  -0.06468
   scf:   43   -19969.382216   -19969.382226   -19969.404932  0.000023 -2.321581  0.002258
     spin moment: S , {S} =   -0.06480       0.0       0.0  -0.06480
   scf:   44   -19969.382302   -19969.382263   -19969.404935  0.000218 -2.321371  0.002289
     spin moment: S , {S} =   -0.06503       0.0       0.0  -0.06503
   scf:   45   -19969.382279   -19969.382271   -19969.404935  0.000024 -2.321339  0.002082
     spin moment: S , {S} =   -0.06516       0.0       0.0  -0.06516
   scf:   46   -19969.382328   -19969.382299   -19969.404937  0.000111 -2.321187  0.001524
     spin moment: S , {S} =   -0.06629       0.0       0.0  -0.06629
   scf:   47   -19969.382372   -19969.382334   -19969.404938  0.000184 -2.320935  0.001311
     spin moment: S , {S} =   -0.06819       0.0       0.0  -0.06819
   scf:   48   -19969.382327   -19969.382331   -19969.404938  0.000017 -2.320952  0.001361
     spin moment: S , {S} =   -0.06819       0.0       0.0  -0.06819
   scf:   49   -19969.382396   -19969.382363   -19969.404937  0.000170 -2.320946  0.001109
     spin moment: S , {S} =   -0.06630       0.0       0.0  -0.06630
   scf:   50   -19969.382265   -19969.382313   -19969.404937  0.000206 -2.321088  0.001466
     spin moment: S , {S} =   -0.06708       0.0       0.0  -0.06708
   scf:   51   -19969.382405   -19969.382358   -19969.404938  0.000169 -2.320851  0.000712
     spin moment: S , {S} =   -0.06818       0.0       0.0  -0.06818

SCF Convergence by DM+H criterion
max |DM_out - DM_in|         :     0.0001692938
max |H_out - H_in|      (eV) :     0.0007117722
SCF cycle converged after 51 iterations

Using DM_out to compute the final energy and forces
No. of atoms with KB's overlaping orbs in proc 0. Max # of overlaps:     228     212

siesta: E_KS(eV) =           -19969.3824

siesta: E_KS - E_eggbox =    -19969.3824
     spin moment: S , {S} =   -0.06818       0.0       0.0  -0.06818

siesta: Atomic forces (eV/Ang):
     1    0.093033   -0.547590   -0.589170
     2    0.049039    1.165499    0.008980
     3   -0.086325   -1.251510    0.015336
     4    0.763548    0.025613    0.393258
     5   -0.981667   -0.921140    0.519458
     6    0.304020    0.714498   -0.129688
     7   -0.569842    1.826563   -0.369491
     8   -1.302887    1.942294   -0.162366
     9   -0.757776   -0.123018    0.169360
    10    1.525479   -0.044101   -0.292551
    11   -0.464539   -0.706833   -0.458609
    12    0.429489   -0.148815    0.559990
    13    2.234257   -0.181781   -0.541228
    14   -0.763484    0.284162   -0.185667
    15   -0.871011    1.525510   -0.138608
    16    0.605082    0.140554   -0.198364
    17   -0.797819    0.308203    0.163759
    18   -0.327429    0.404331    0.375330
    19    0.141407   -0.475248    0.086319
    20    0.516775   -1.063654    0.123467
    21    0.977386   -0.272683   -0.195869
    22   -1.615427   -0.476772    0.551427
    23    1.825379    0.156275   -0.618729
    24   -0.405608   -0.140273    0.046100
    25   -0.034106    0.247077   -0.052622
    26   -0.655804    0.939651   -0.344122
    27    0.319596    1.273741    0.661322
    28   -0.717585   -0.300733   -0.931313
    29    0.229649   -0.408519    0.622021
    30    0.949159    0.251096   -0.136870
    31    0.100139    0.830810    0.249079
    32   -1.592544   -1.718145    0.902414
    33    0.880805   -0.303594   -0.141683
    34   -0.183239   -0.636821    0.231166
    35   -0.100948   -0.318159    0.588441
    36   -0.531547    0.458916   -0.000093
    37    0.511508    0.406303    0.176235
    38   -0.544173   -0.538912   -0.186450
    39    0.623987   -0.548304   -0.139101
    40    0.642412    0.496737    0.104383
    41   -0.519461    0.429668    0.011362
    42    0.032717    0.758306   -0.773845
    43   -0.395381   -0.558709    0.092370
    44   -0.749149   -0.561114    0.262615
    45    0.645429    0.047547   -0.202311
    46    0.664914   -0.026616    0.022916
    47   -0.324894    0.464558    0.614340
    48    0.264305   -0.358928   -0.527888
    49    0.148863    0.606250   -0.164238
    50   -0.845036   -0.198475    0.139123
    51    0.238218    0.637239   -0.234873
    52    0.645130   -0.107619   -0.153834
    53    0.679466   -0.393779   -0.082059
    54   -0.171150   -0.684554    0.239282
    55    0.011406   -0.813459    0.273695
    56    0.085923   -0.586546    0.286426
    57   -0.581341   -0.326899   -0.681769
    58    0.482400    0.222776    0.501559
    59   -0.302898   -0.237316   -0.635832
    60    1.003664    0.411755   -0.474854
    61   -0.729161    0.194964    0.429382
    62   -0.377306   -0.331553   -0.570740
    63   -0.336190    0.417416    0.263107
    64    0.073561   -0.631748    0.466730
    65    0.268882   -0.013903   -0.483000
    66    0.317770   -0.806079   -0.419289
    67   -0.465960    0.357118   -0.519235
    68    0.404575   -0.149042   -1.241436
    69    0.802968   -0.120947    0.226229
    70   -1.862446    2.537452    1.669831
    71    2.530904   -0.116391   -4.547502
    72   -1.690256    0.979023    0.410182
    73    0.066298   -0.676310    0.734613
    74    0.698534   -0.749973    0.146057
    75    0.628029    0.776034    0.737976
    76    0.612359   -0.136261   -0.609810
    77   -0.633421    0.935033    1.610092
    78   -4.843174   -1.317182   -0.065715
    79    2.167845    0.131611   -2.501167
    80    0.405096   -0.837571    0.152522
    81   -1.169594    0.610604    0.814600
    82   -0.562063   -4.748144    1.558794
    83    0.072867    0.752698   -0.783012
    84    1.022898    0.505508   -0.166790
    85    0.069651   -0.460384    0.751613
    86   -0.168913    0.190524    1.521576
    87    0.521970    3.291323   -2.444491
    88   -0.346419   -0.356743    0.085714
    89    1.028934   -4.039559   -2.071464
    90   -0.194023   -0.220825   -0.967001
    91   -0.948049   -0.299668    0.696430
    92    1.026653    0.149125   -0.879058
    93   -1.044956    0.059103    0.733515
    94   -0.364658    0.593179   -0.631968
    95    0.175689    1.019135    0.617442
    96    0.082142   -0.534013    0.188599
    97    0.555995   -0.288822    0.053070
    98    0.500644    0.999662    0.274694
    99   -0.604506    0.364438   -0.510337
   100    0.959875   -0.805708    0.642670
   101   -1.131364    0.253645   -0.723071
   102    0.951097   -0.899774    0.558804
   103   -0.987182    0.436096   -0.478943
   104    0.547975   -0.576987   -0.940873
   105   -0.759883   -0.716604    0.079352
   106    0.717475    0.347865    0.476403
   107   -0.648084    0.045821    1.206970
   108    0.284855    0.420893   -0.809287
   109    0.748177   -0.334860    0.297750
   110    0.488801   -1.194883   -1.018676
   111    0.091963   -0.941587   -0.268535
   112   -0.724697   -0.294433   -0.877930
   113   -0.597285   -0.348176    1.008961
   114   -0.095306    1.399470   -0.440575
   115    0.681685   -0.262318   -0.957302
   116    0.170173   -0.543812    0.042660
   117    1.425319   -0.485210    0.207937
   118   -0.490410    0.130148   -1.346586
   119    0.645026   -0.251196   -1.518347
   120    0.771442   -1.941705   -0.967927
   121   -0.720615   -0.882396   -1.778204
   122   -0.038040   -0.003499    0.252167
   123   -0.492400    0.192578   -0.238660
[...]
   67.0083   67.0472   67.1922   67.1997   67.2324   67.4735   67.5478   67.7752   67.7967   67.9005
   67.9423   68.0197   68.1103   68.1209   68.1359   68.2920   68.4068   68.4987   68.5564   68.6631
   68.7511   68.7897   68.8724   68.8930   68.9414   69.0364   69.2050   69.2953   69.3442   69.4310
   69.5358   69.5653   69.6675   69.7278   69.7616   69.9293   70.0259   70.1526   70.2623   70.3880
   70.4760   70.4954   70.5412   70.6624   70.7107   70.7294   70.8050   70.9296   70.9767   71.0151
   71.0983   71.2026   71.2174   71.4527   71.5072   71.6302   71.7257   71.7650   71.8401   71.9859
   72.0223   72.1123   72.1411   72.1777   72.3094   72.3390   72.4548   72.5785   72.6479   72.7439
   72.8104   72.8815   73.0944   73.1307   73.1857   73.3444   73.3881   73.4361   73.4374   73.5594
   73.8049   73.8625   73.9068   73.9294   74.0000   74.1153   74.2146   74.3288   74.3771   74.5535
   74.5994   74.7875   74.9803   75.1101   75.1861   75.2696   75.3439   75.4512   75.4560   75.4850
   75.8180   76.0433   76.1790   76.2348   76.4958   76.5733   76.5745   76.7105   76.8937   76.9510
   77.0903   77.1338   77.2069   77.3355   77.3549   77.3924   77.6519   78.0604   78.1416   78.2385
   78.4498   78.5467   78.6866   78.9190   79.0195   79.0840   79.1110   79.2943   79.3957   79.4283
   79.5013   79.7242   79.8566   80.1499   80.4774   80.5898   80.7325   80.7613   80.9376   81.0792
   81.4992   81.6682   81.9640   82.0292   82.3271   82.3460   82.6866   82.9125   83.0129   83.0558
   83.3969   83.5678   83.5902   83.7676   83.8548   84.1097   84.3293   84.5221   84.7445   84.7896
   84.9656   85.2677   85.4257   85.5800   85.8540   86.0493   86.7917   86.8361   87.0607   87.4221
   87.8524   87.9769   88.5210   88.6374   88.9780   89.3542   89.6168   89.7555   89.8876   90.8013
   91.1707   91.3335   91.5404   92.3225   92.6149   92.7088   92.8850   92.9197   94.1989   94.2069
   94.5047   94.9913   95.2042   95.5125   96.1722   96.4002   97.6380   97.8952   97.9995   98.8888
   99.0246   99.5914  100.1220  100.7386  101.9575  102.1948  102.3542  103.7988  105.2109  105.5028
  105.6479  105.6647  106.7732  106.9476  107.5072  108.0454  109.8808  110.8214  110.9352  113.1975
  116.5119  117.8578  121.1762  123.9621  127.6504  128.1688  137.7121  146.3390

siesta: PDOS info
siesta: E1 -- E2, sigma [eV], nhist:  -10.000 --   10.000    0.200 500

siesta: Program's energy decomposition (eV):
siesta: Ebs     =     -6369.250460
siesta: Eions   =     30070.430106
siesta: Ena     =      5941.518446
siesta: Ekin    =     13979.040870
siesta: Enl     =     -2429.624919
siesta: Eso     =         0.000000
siesta: Edftu   =         0.000000
siesta: DEna    =      -454.540451
siesta: DUscf   =        59.196881
siesta: DUext   =         0.000000
siesta: Exc     =     -6997.597452
siesta: eta*DQ  =         0.000000
siesta: Emadel  =         0.000000
siesta: Emeta   =         0.000000
siesta: Emolmec =         0.000000
siesta: Ekinion =        11.510413
siesta: Eharris =    -19960.926319
siesta: Etot    =    -19960.926319
siesta: FreeEng =    -19960.926319

siesta: Final energy (eV):
siesta:  Band Struct. =   -6369.250460
siesta:       Kinetic =   13979.040870
siesta:       Hartree =  103314.313826
siesta:       Edftu   =       0.000000
siesta:       Eso     =       0.000000
siesta:    Ext. field =       0.000000
siesta:   Exch.-corr. =   -6997.597452
siesta:  Ion-electron = -218798.192560
siesta:       Ion-ion =   88529.998585
siesta:       Ekinion =      11.510413
siesta:         Total =  -19960.926319
siesta:         Fermi =      -2.864354

siesta: Atomic forces (eV/Ang):
siesta:      1   -1.389424    1.111450    0.610999
siesta:      2    0.438591   -1.424489   -0.095336
siesta:      3   -0.135462   -0.318746    1.161011
siesta:      4   -0.456497   -1.003905   -1.876299
siesta:      5    1.781492   -0.145393    1.038986
siesta:      6    0.063493   -0.524356   -0.791052
siesta:      7   -0.827752   -1.282417    0.920473
siesta:      8    0.784372   -0.602692    0.515334
siesta:      9   -0.362898    0.711473   -0.110473
siesta:     10   -1.079730   -1.168777   -0.288116
siesta:     11    1.648930   -0.625441    0.006607
siesta:     12   -0.084358    2.378018    0.834823
siesta:     13   -2.127089   -0.301031   -0.268204
siesta:     14    1.774838    1.869950   -0.227699
siesta:     15    1.109873   -0.295764   -0.806297
siesta:     16   -0.037876    0.116437    0.136671
siesta:     17    0.160802    0.788970    0.284300
siesta:     18   -0.389702    0.423415   -0.512973
siesta:     19    0.136523   -0.074027   -0.006985
siesta:     20    0.799189    0.219208    0.074634
siesta:     21   -0.193048   -1.523277    1.011836
siesta:     22   -0.249140    1.036389   -0.981891
siesta:     23   -1.585596    0.464181    0.287957
siesta:     24    2.358978   -2.196057   -0.076937
siesta:     25    0.033883    1.886614   -0.430962
siesta:     26   -0.207685    1.905966   -0.701356
siesta:     27    0.208880    0.956199   -0.265980
siesta:     28   -3.093574   -2.687762   -2.434843
siesta:     29    2.430985   -0.164051   -1.892523
siesta:     30    0.830810   -0.633329   -1.302500
siesta:     31   -2.325028   -2.075541    1.325653
siesta:     32    0.349053    2.108579   -0.726818
siesta:     33   -0.850575   -0.466906    0.019626
siesta:     34    0.503876    0.278450    0.220536
siesta:     35    0.391720    0.133887   -0.525083
siesta:     36    0.427247   -0.074599    0.281275
siesta:     37    0.016719   -0.268479   -0.063978
siesta:     38   -0.038537    0.223518   -0.140714
siesta:     39    0.525427   -0.141208   -0.226753
siesta:     40    0.247917    0.468755   -0.025994
siesta:     41   -0.615202    0.998313   -0.108950
siesta:     42    0.140967    0.064093    0.370855
siesta:     43    0.160536    0.592375    0.188995
siesta:     44    0.338869    0.356628   -0.186634
siesta:     45   -0.098485    0.900186   -0.088942
siesta:     46   -0.834365    0.477796    0.522187
siesta:     47    0.250109    0.021308   -0.169450
siesta:     48    0.666977   -1.131601   -1.386568
siesta:     49   -0.315176   -0.838929    0.067382
siesta:     50   -0.783561   -0.021544    0.070246
siesta:     51    0.024039    0.009015   -0.254015
siesta:     52   -0.228267   -0.016131    0.023650
siesta:     53    0.559173   -0.459681    0.085644
siesta:     54    0.171431   -0.077967    0.101459
siesta:     55   -0.059733   -1.677801    0.436151
siesta:     56   -0.034528    0.247613    0.208977
siesta:     57   -0.286254    0.142537   -0.250063
siesta:     58    1.856089    1.272424    2.884107
siesta:     59    0.096664    0.244936    1.099351
siesta:     60   -1.682750   -0.418978    0.040814
siesta:     61   -0.511822    0.736106    0.293759
siesta:     62    1.008529    0.766877    1.365174
siesta:     63   -0.298823    0.272967    0.302849
siesta:     64   -0.552134   -0.211982   -0.187350
siesta:     65    1.455721   -1.236070   -1.627260
siesta:     66   -2.691565   -0.732058    3.444384
siesta:     67    1.772842   -0.166273   -0.390178
siesta:     68   -0.083399   -0.154598   -1.004187
siesta:     69   -0.771388   -0.666227   -0.068753
siesta:     70    0.350200   -1.498126   -5.380967
siesta:     71    4.062784    1.211812   -1.575902
siesta:     72    0.981267   -1.779549   -0.885299
siesta:     73   -0.166430    0.646771   -0.493828
siesta:     74    1.183245   -2.892189   -0.407426
siesta:     75    0.873121    0.632810    1.425086
siesta:     76   -3.005544   -0.462765   -0.332503
siesta:     77   -0.797582    2.257482    2.712900
siesta:     78   -1.392884   -0.723023    0.835334
siesta:     79    1.843043    0.386139    2.497520
siesta:     80    1.244588    2.312445   -0.294247
siesta:     81   -0.306671   -0.519081    0.161840
siesta:     82    1.496519    4.712817   -1.278267
siesta:     83    0.821878   -2.124799   -0.905126
siesta:     84    0.391648   -1.263238    1.030124
siesta:     85    0.226607    0.504378    0.852907
siesta:     86   -2.535783   -1.215136   -0.453047
siesta:     87   -0.088049   -3.229925    3.721973
siesta:     88    0.978512    0.157738   -0.237491
siesta:     89    0.451324    4.405321   -1.131648
siesta:     90   -0.778901   -0.994710   -0.063349
siesta:     91    1.240944    1.601598    0.540152
siesta:     92   -0.224119   -0.933095   -1.987471
siesta:     93   -2.811903   -1.105182    1.397526
siesta:     94   -0.326009    0.750512   -0.481341
siesta:     95    0.689696    1.911333    0.307691
siesta:     96   -0.134009   -0.188797    0.821426
siesta:     97    1.637264    1.351693    0.235839
siesta:     98   -0.485465   -0.915382   -2.040637
siesta:     99   -0.087681    1.406214   -1.539556
siesta:    100   -0.386128   -1.108585    1.819216
siesta:    101   -0.145022    0.946281   -0.973299
siesta:    102    0.200795    0.157784   -0.240449
siesta:    103   -0.035728    0.755811    0.637089
siesta:    104   -0.815047   -1.307692   -0.540183
siesta:    105    0.185471    0.265074    0.180549
siesta:    106   -0.611460    0.564399    0.073487
siesta:    107   -0.315700    0.129486    0.523495
siesta:    108   -0.243058    0.328904    0.093212
siesta:    109   -0.560452    0.365155   -0.069548
siesta:    110   -0.355730   -0.075444   -0.552872
siesta:    111    0.412909   -0.321275    0.137121
siesta:    112   -0.654136    0.256226   -0.665707
siesta:    113   -0.246945   -0.230417    0.062915
siesta:    114   -0.427724    0.478679   -0.574479
siesta:    115   -0.543245   -0.263430    0.662708
siesta:    116    0.344126   -1.104986    0.881605
siesta:    117   -2.130886    0.159744   -1.124251
siesta:    118    0.223045    0.355310    0.804925
siesta:    119   -0.064735    0.094843    0.265066
siesta:    120   -0.436505   -1.196534   -1.629723
siesta:    121   -0.476442   -0.458315    0.329102
siesta:    122    0.153342    0.120865    0.136209
siesta:    123   -0.938248    0.757391   -1.082875
siesta:    124   -0.135919    1.129695    1.163501
siesta:    125    0.220525   -0.130847   -0.721789
siesta:    126   -0.594505   -0.084786    0.155699
siesta:    127    1.289230    1.031520   -0.188743
siesta:    128    0.394694    0.314868    0.206250
siesta:    129   -0.730395   -1.183924    0.031665
siesta:    130    0.302673   -0.061827    0.190504
siesta:    131   -0.593104    0.181415    0.879355
siesta:    132    1.512884   -0.033741    1.776171
siesta:    133   -0.033931    1.548586    0.548442
siesta:    134   -0.832679    0.837670   -0.114100
siesta:    135   -0.192977   -0.540338    0.305417
siesta:    136    0.833225   -0.170396    0.995986
siesta:    137   -1.189051    0.353197   -0.599540
siesta:    138    0.070528    0.193524   -0.304461
siesta:    139    0.548409    0.755979    0.647270
siesta:    140   -0.051582   -0.120540   -0.092014
siesta:    141   -0.257422    0.063410    0.275793
siesta:    142   -0.095480    0.855152    0.003103
siesta:    143   -0.331243   -0.039165    0.074644
siesta:    144   -0.601189    0.213425   -0.166648
siesta:    145    1.363786   -0.417940   -0.748384
siesta:    146    0.312114    0.861021   -1.110172
siesta:    147    0.421177    1.066828    0.349786
siesta:    148   -0.531568    0.141060   -0.295963
siesta:    149    0.030349    0.394258   -0.390263
siesta:    150   -0.161903   -0.496267   -0.508089
siesta:    151   -0.348000    0.290555   -0.050329
siesta:    152   -0.188268   -0.114241    0.068561
siesta:    153    0.224441   -0.202427    1.257717
siesta:    154    1.145468    0.491787    0.228497
siesta:    155    0.022018    0.242975   -0.273611
siesta:    156   -0.002391    0.084630    0.323930
siesta:    157    0.006147    0.158423    0.037793
siesta:    158    0.596602   -0.310499    0.211695
siesta:    159   -0.195836   -0.276400    0.160589
siesta:    160   -1.068011   -0.427545   -0.600331
siesta:    161   -0.235427    0.464292    0.262497
siesta:    162    0.188719   -0.005260    0.348591
siesta:    163   -0.905219   -0.013956    0.419706
siesta:    164    1.075914   -0.324972   -0.281626
siesta:    165   -0.023317   -1.108962    1.723074
siesta:    166    0.734656    0.037613   -0.012453
siesta:    167    0.284296    0.805010   -1.427160
siesta:    168    0.290653   -0.289939   -0.309570
siesta:    169   -0.361849   -0.772509    0.621481
siesta:    170   -0.991995    0.203039    0.495000
siesta:    171    0.284389   -0.361392   -0.027011
siesta:    172   -0.065280    0.215089   -0.071563
siesta:    173   -0.099267    0.156498   -0.530694
siesta:    174    0.139108    0.090720    0.083638
siesta:    175    0.508449   -0.532418   -0.284592
siesta:    176    0.494018    0.029766    0.405102
siesta:    177    0.283646   -0.281278   -0.029492
siesta:    178   -0.111735   -0.387610   -0.234408
siesta:    179    0.099537    0.228141   -0.215507
siesta:    180    0.014845   -0.361907   -0.088612
siesta:    181    1.939774    0.283562    1.522029
siesta:    182   -0.531942    1.236813   -1.039953
siesta:    183   -1.681108   -0.391417   -0.558693
siesta:    184    0.013226   -1.045405   -0.532565
siesta:    185   -0.585607   -0.505098    0.794015
siesta:    186   -0.381195    0.791680    0.439515
siesta:    187    3.295062    0.809321   -2.544493
siesta:    188    1.177286   -1.300506   -0.336238
siesta:    189   -0.561493    0.313028   -0.821893
siesta:    190   -0.754135   -1.385545    0.006539
siesta:    191   -1.156313   -1.099890    0.090714
siesta:    192   -0.427913    0.481661    2.401533
siesta:    193    0.300564    0.120403    0.263146
siesta:    194   -0.104664    5.158555   -0.191898
siesta:    195   -0.354705   -0.979014   -2.611039
siesta:    196    0.064582    0.687114    1.302694
siesta:    197    0.902017    0.050699   -0.044120
siesta:    198   -0.384214   -2.606338   -0.864395
siesta:    199    0.627830    0.919851    0.907719
siesta:    200   -1.079833   -0.015271    0.606968
siesta:    201    2.651955   -1.098540   -2.588935
siesta:    202   -0.270630   -0.949709   -0.435210
siesta:    203   -0.850712    0.254129   -0.056018
siesta:    204    0.012294    0.109876    0.302403
siesta:    205   -0.407974    0.371489    0.193717
siesta:    206    0.142288   -0.121589   -0.171811
siesta:    207    0.194232    0.099075    0.331751
siesta:    208    0.985970   -0.356803    0.510874
siesta:    209   -0.412696    0.364676    0.126035
siesta:    210    0.607544   -0.719605   -0.023342
siesta:    211    0.258176    0.395959   -0.194961
siesta:    212    0.115314   -0.270823    0.255968
siesta:    213    0.454039    1.513039   -0.801328
siesta:    214    0.411327   -0.058417    0.068492
siesta:    215    0.195900   -0.119675    0.599158
siesta:    216    0.351617    0.368623   -0.520682
siesta:    217   -0.377943    0.018268    0.409154
siesta:    218    0.902988    0.559108    0.298622
siesta:    219    0.197798    0.531054   -0.197661
siesta:    220    0.090703    0.447648    0.560105
siesta:    221   -0.434406    0.516784   -0.466682
siesta:    222   -0.038633   -0.520692   -0.038022
siesta:    223    0.163782   -0.114112    0.041161
siesta:    224   -0.537371    0.026030   -0.512724
siesta:    225    0.410546    1.608201    1.020870
siesta:    226   -0.129083    0.058236    0.105472
siesta:    227   -0.242323   -0.183154    0.360546
siesta:    228   -0.448354    0.375198    0.265668
siesta: ----------------------------------------
siesta:    Tot    4.784751   11.467419   -1.253345

siesta: Stress tensor (static) (eV/Ang**3):
siesta:    -0.000215   -0.000295    0.000153
siesta:    -0.000295    0.000060   -0.000313
siesta:     0.000153   -0.000313   -0.000726

siesta: Cell volume =      32986.835717 Ang**3

siesta: Pressure (static):
siesta:                Solid            Molecule  Units
siesta:           0.00000320         -0.00000655  Ry/Bohr**3
siesta:           0.00029364         -0.00060100  eV/Ang**3
siesta:           0.47047478         -0.96292542  kBar
(Free)E+ p_basis*V_orbitals  =      -19914.716309
(Free)Eharris+ p_basis*V_orbitals  =      -19914.716310
     spin moment: S , {S} =    0.00000       0.0       0.0   0.00000

siesta: Electric dipole (a.u.)  =   -5.756622   -0.053211   -0.314552
siesta: Electric dipole (Debye) =  -14.631884   -0.135249   -0.799513

cite: Please see "siesta.bib" for an exhaustive BiBTeX file.
cite: This calculation has made use of the following articles.
cite: Articles are encouraged to be cited in a published work.
        Primary SIESTA paper
          DOI: www.doi.org/10.1088/0953-8984/14/11/302


timer: Elapsed wall time (sec) =   10995.598
timer: CPU execution times (sec):

Routine            Calls   Time/call    Tot.time        %
siesta                 1   10990.944   10990.944   100.00
Setup                  1       0.426       0.426     0.00
bands                  3     610.657    1831.972    16.67
KSV_init               1       0.000       0.000     0.00
IterGeom              10     662.397    6623.965    60.27
state_init            10       1.069      10.690     0.10
hsparse               10       0.086       0.861     0.01
overlap               10       0.840       8.402     0.08
Setup_H0              10      13.072     130.716     1.19
naefs                 20       0.002       0.050     0.00
MolMec                20       0.000       0.000     0.00
kinefsm               20       0.560      11.205     0.10
nlefsm                20       3.340      66.799     0.61
DHSCF_Init            10       6.685      66.851     0.61
DHSCF1                10       0.034       0.341     0.00
INITMESH              10       0.000       0.000     0.00
DHSCF2                10       6.651      66.508     0.61
REMESH                10       0.802       8.018     0.07
REORD                822       0.020      16.351     0.15
PHION                 10       4.178      41.776     0.38
COMM_BSC            1326       0.017      22.148     0.20
POISON               171       0.952     162.730     1.48
fft                  342       0.381     130.143     1.18
IterSCF              140      45.147    6320.542    57.51
setup_H              150       5.618     842.694     7.67
DHSCF                161       6.141     988.681     9.00
DHSCF3               161       5.585     899.146     8.18
rhoofd               161       1.751     281.834     2.56
XC                   161       0.845     136.074     1.24
GXC-CellXC           161       0.667     107.393     0.98
cellXC               161       0.667     107.391     0.98
vmat                 160       1.448     231.663     2.11
compute_dm           140      39.075    5470.524    49.77
diagon               140      39.066    5469.217    49.76
r-eigvec             280      18.426    5159.338    46.94
r-buildHS            280       0.010       2.934     0.03
rdiag                282      18.408    5191.136    47.23
rdiag1               282       0.952     268.538     2.44
rdiag2               282       1.205     339.903     3.09
rdiag3               282      10.721    3023.224    27.51
rdiag4               282       5.504    1552.247    14.12
r-buildD             140       2.158     302.095     2.75
MIXER                130       0.030       3.849     0.04
PostSCF               10      16.178     161.784     1.47
DHSCF4                10       8.953      89.534     0.81
dfscf                 10       8.003      80.031     0.73
overfsm               10       0.199       1.994     0.02
state_analysis        10       0.011       0.114     0.00
siesta_move           10       0.006       0.056     0.00
Analysis               1    4366.542    4366.542    39.73
c-eigval             152      12.050    1831.568    16.66
c-buildHS            152       0.031       4.713     0.04
cdiag                152      12.019    1826.855    16.62
cdiag1               152       2.288     347.848     3.16
cdiag2               152       3.384     514.441     4.68
cdiag3               152       6.346     964.559     8.78
pdos                   1    2530.309    2530.309    23.02
optical                1       0.000       0.000     0.00
  

>> End of run:  14-DEC-2020  12:08:18
Job completed
